
Host: headnode

Timers On : Sun Nov  9 14:46:57 2025
Timers Off: Sun Nov  9 14:46:57 2025

Wall Time:        0.75 seconds

                                                       Time (seconds)
Module                                       User      System        Wall        Calls

--------------------------------------------------------------------------------------

**************************************************************************************

Host: headnode

Timers On : Sun Nov  9 14:47:43 2025
Timers Off: Sun Nov  9 14:47:44 2025

Wall Time:        0.73 seconds

                                                       Time (seconds)
Module                                       User      System        Wall        Calls

--------------------------------------------------------------------------------------

**************************************************************************************

Host: headnode

Timers On : Sun Nov  9 14:47:56 2025
Timers Off: Sun Nov  9 14:47:57 2025

Wall Time:        0.53 seconds

                                                       Time (seconds)
Module                                       User      System        Wall        Calls

--------------------------------------------------------------------------------------

**************************************************************************************

Host: headnode

Timers On : Sun Nov  9 14:58:12 2025
Timers Off: Sun Nov  9 14:58:13 2025

Wall Time:        0.59 seconds

                                                       Time (seconds)
Module                                       User      System        Wall        Calls

--------------------------------------------------------------------------------------

**************************************************************************************

Host: headnode

Timers On : Sun Nov  9 14:58:48 2025
Timers Off: Sun Nov  9 14:58:49 2025

Wall Time:        0.65 seconds

                                                       Time (seconds)
Module                                       User      System        Wall        Calls

--------------------------------------------------------------------------------------

**************************************************************************************

Host: headnode

Timers On : Sun Nov  9 14:59:24 2025
Timers Off: Sun Nov  9 14:59:25 2025

Wall Time:        0.66 seconds

                                                       Time (seconds)
Module                                       User      System        Wall        Calls

--------------------------------------------------------------------------------------

**************************************************************************************

Host: headnode

Timers On : Sun Nov  9 15:09:31 2025
Timers Off: Sun Nov  9 15:09:31 2025

Wall Time:        0.94 seconds

                                                       Time (seconds)
Module                                       User      System        Wall        Calls
Libint2ERI::Libint2ERI              :      0.017u      0.017s      0.010w      1 calls

--------------------------------------------------------------------------------------
Libint2ERI::Libint2ERI              :      0.017u      0.017s      0.010w      1 calls

**************************************************************************************

Host: headnode

Timers On : Sun Nov  9 15:11:27 2025
Timers Off: Sun Nov  9 15:11:28 2025

Wall Time:        0.96 seconds

                                                       Time (seconds)
Module                                       User      System        Wall        Calls
Libint2ERI::Libint2ERI              :      0.000u      0.017s      0.009w      1 calls

--------------------------------------------------------------------------------------
Libint2ERI::Libint2ERI              :      0.000u      0.017s      0.009w      1 calls

**************************************************************************************

Host: headnode

Timers On : Sun Nov  9 15:13:20 2025
Timers Off: Sun Nov  9 15:13:21 2025

Wall Time:        0.83 seconds

                                                       Time (seconds)
Module                                       User      System        Wall        Calls
Libint2ERI::Libint2ERI              :      0.000u      0.017s      0.009w      1 calls

--------------------------------------------------------------------------------------
Libint2ERI::Libint2ERI              :      0.000u      0.017s      0.009w      1 calls

**************************************************************************************

Host: headnode

Timers On : Sun Nov  9 15:13:52 2025
Timers Off: Sun Nov  9 15:13:52 2025

Wall Time:        0.90 seconds

                                                       Time (seconds)
Module                                       User      System        Wall        Calls
Libint2ERI::Libint2ERI              :      0.000u      0.017s      0.009w      1 calls

--------------------------------------------------------------------------------------
Libint2ERI::Libint2ERI              :      0.000u      0.017s      0.009w      1 calls

**************************************************************************************

Host: headnode

Timers On : Sun Nov  9 15:17:43 2025
Timers Off: Sun Nov  9 15:17:44 2025

Wall Time:        0.92 seconds

                                                       Time (seconds)
Module                                       User      System        Wall        Calls
Libint2ERI::Libint2ERI              :      0.000u      0.000s      0.009w      1 calls

--------------------------------------------------------------------------------------
Libint2ERI::Libint2ERI              :      0.000u      0.000s      0.009w      1 calls

**************************************************************************************

Host: headnode

Timers On : Sun Nov  9 15:29:19 2025
Timers Off: Sun Nov  9 15:29:20 2025

Wall Time:        0.65 seconds

                                                       Time (seconds)
Module                                       User      System        Wall        Calls

--------------------------------------------------------------------------------------

**************************************************************************************

Host: headnode

Timers On : Sun Nov  9 15:29:42 2025
Timers Off: Sun Nov  9 15:29:43 2025

Wall Time:        0.59 seconds

                                                       Time (seconds)
Module                                       User      System        Wall        Calls

--------------------------------------------------------------------------------------

**************************************************************************************

Host: headnode

Timers On : Sun Nov  9 15:31:29 2025
Timers Off: Sun Nov  9 15:31:30 2025

Wall Time:        0.95 seconds

                                                       Time (seconds)
Module                                       User      System        Wall        Calls
Libint2ERI::Libint2ERI              :      0.000u      0.017s      0.009w      1 calls

--------------------------------------------------------------------------------------
Libint2ERI::Libint2ERI              :      0.000u      0.017s      0.009w      1 calls

**************************************************************************************

Host: headnode

Timers On : Sun Nov  9 15:38:15 2025
Timers Off: Sun Nov  9 15:38:16 2025

Wall Time:        0.95 seconds

                                                       Time (seconds)
Module                                       User      System        Wall        Calls

--------------------------------------------------------------------------------------

**************************************************************************************

Host: headnode

Timers On : Sun Nov  9 15:44:10 2025
Timers Off: Sun Nov  9 15:44:11 2025

Wall Time:        0.77 seconds

                                                       Time (seconds)
Module                                       User      System        Wall        Calls

--------------------------------------------------------------------------------------

**************************************************************************************

Host: headnode

Timers On : Sun Nov  9 15:44:16 2025
Timers Off: Sun Nov  9 15:44:17 2025

Wall Time:        0.73 seconds

                                                       Time (seconds)
Module                                       User      System        Wall        Calls

--------------------------------------------------------------------------------------

**************************************************************************************

Host: headnode

Timers On : Sun Nov  9 15:44:39 2025
Timers Off: Sun Nov  9 15:44:40 2025

Wall Time:        0.73 seconds

                                                       Time (seconds)
Module                                       User      System        Wall        Calls

--------------------------------------------------------------------------------------

**************************************************************************************

Host: headnode

Timers On : Sun Nov  9 15:46:31 2025
Timers Off: Sun Nov  9 15:46:32 2025

Wall Time:        0.71 seconds

                                                       Time (seconds)
Module                                       User      System        Wall        Calls

--------------------------------------------------------------------------------------

**************************************************************************************

Host: headnode

Timers On : Sun Nov  9 15:46:45 2025
Timers Off: Sun Nov  9 15:46:46 2025

Wall Time:        0.82 seconds

                                                       Time (seconds)
Module                                       User      System        Wall        Calls

--------------------------------------------------------------------------------------

**************************************************************************************

Host: headnode

Timers On : Sun Nov  9 15:47:09 2025
Timers Off: Sun Nov  9 15:47:10 2025

Wall Time:        0.82 seconds

                                                       Time (seconds)
Module                                       User      System        Wall        Calls

--------------------------------------------------------------------------------------

**************************************************************************************

Host: headnode

Timers On : Sun Nov  9 16:06:24 2025
Timers Off: Sun Nov  9 16:06:25 2025

Wall Time:        0.70 seconds

                                                       Time (seconds)
Module                                       User      System        Wall        Calls

--------------------------------------------------------------------------------------

**************************************************************************************

Host: headnode

Timers On : Sun Nov  9 16:06:31 2025
Timers Off: Sun Nov  9 16:06:32 2025

Wall Time:        0.75 seconds

                                                       Time (seconds)
Module                                       User      System        Wall        Calls

--------------------------------------------------------------------------------------

**************************************************************************************

Host: headnode

Timers On : Sun Nov  9 16:07:16 2025
Timers Off: Sun Nov  9 16:07:17 2025

Wall Time:        0.68 seconds

                                                       Time (seconds)
Module                                       User      System        Wall        Calls

--------------------------------------------------------------------------------------

**************************************************************************************

Host: headnode

Timers On : Sun Nov  9 16:07:38 2025
Timers Off: Sun Nov  9 16:07:39 2025

Wall Time:        0.68 seconds

                                                       Time (seconds)
Module                                       User      System        Wall        Calls

--------------------------------------------------------------------------------------

**************************************************************************************

Host: headnode

Timers On : Sun Nov  9 16:07:44 2025
Timers Off: Sun Nov  9 16:07:45 2025

Wall Time:        0.72 seconds

                                                       Time (seconds)
Module                                       User      System        Wall        Calls

--------------------------------------------------------------------------------------

**************************************************************************************

Host: headnode

Timers On : Sun Nov  9 16:09:15 2025
Timers Off: Sun Nov  9 16:09:16 2025

Wall Time:        0.89 seconds

                                                       Time (seconds)
Module                                       User      System        Wall        Calls

--------------------------------------------------------------------------------------

**************************************************************************************

Host: headnode

Timers On : Sun Nov  9 16:10:20 2025
Timers Off: Sun Nov  9 16:10:21 2025

Wall Time:        0.79 seconds

                                                       Time (seconds)
Module                                       User      System        Wall        Calls

--------------------------------------------------------------------------------------

**************************************************************************************

Host: headnode

Timers On : Sun Nov  9 16:11:56 2025
Timers Off: Sun Nov  9 16:11:56 2025

Wall Time:        0.81 seconds

                                                       Time (seconds)
Module                                       User      System        Wall        Calls

--------------------------------------------------------------------------------------

**************************************************************************************

Host: headnode

Timers On : Sun Nov  9 16:13:42 2025
Timers Off: Sun Nov  9 16:13:43 2025

Wall Time:        0.89 seconds

                                                       Time (seconds)
Module                                       User      System        Wall        Calls

--------------------------------------------------------------------------------------

**************************************************************************************

Host: headnode

Timers On : Sun Nov  9 16:15:44 2025
Timers Off: Sun Nov  9 16:15:45 2025

Wall Time:        0.82 seconds

                                                       Time (seconds)
Module                                       User      System        Wall        Calls

--------------------------------------------------------------------------------------

**************************************************************************************

Host: headnode

Timers On : Sun Nov  9 16:15:48 2025
Timers Off: Sun Nov  9 16:15:49 2025

Wall Time:        0.79 seconds

                                                       Time (seconds)
Module                                       User      System        Wall        Calls

--------------------------------------------------------------------------------------

**************************************************************************************

Host: headnode

Timers On : Sun Nov  9 16:16:46 2025
Timers Off: Sun Nov  9 16:16:47 2025

Wall Time:        0.87 seconds

                                                       Time (seconds)
Module                                       User      System        Wall        Calls

--------------------------------------------------------------------------------------

**************************************************************************************

Host: headnode

Timers On : Sun Nov  9 16:17:14 2025
Timers Off: Sun Nov  9 16:17:15 2025

Wall Time:        0.76 seconds

                                                       Time (seconds)
Module                                       User      System        Wall        Calls

--------------------------------------------------------------------------------------

**************************************************************************************

Host: headnode

Timers On : Sun Nov  9 16:20:48 2025
Timers Off: Sun Nov  9 16:20:48 2025

Wall Time:        0.78 seconds

                                                       Time (seconds)
Module                                       User      System        Wall        Calls

--------------------------------------------------------------------------------------

**************************************************************************************

Host: headnode

Timers On : Sun Nov  9 16:31:02 2025
Timers Off: Sun Nov  9 16:31:03 2025

Wall Time:        0.83 seconds

                                                       Time (seconds)
Module                                       User      System        Wall        Calls

--------------------------------------------------------------------------------------

**************************************************************************************

Host: headnode

Timers On : Sun Nov  9 16:31:42 2025
Timers Off: Sun Nov  9 16:31:43 2025

Wall Time:        0.77 seconds

                                                       Time (seconds)
Module                                       User      System        Wall        Calls

--------------------------------------------------------------------------------------

**************************************************************************************

Host: headnode

Timers On : Sun Nov  9 16:32:23 2025
Timers Off: Sun Nov  9 16:32:24 2025

Wall Time:        0.77 seconds

                                                       Time (seconds)
Module                                       User      System        Wall        Calls

--------------------------------------------------------------------------------------

**************************************************************************************

Host: headnode

Timers On : Sun Nov  9 16:32:41 2025
Timers Off: Sun Nov  9 16:32:42 2025

Wall Time:        0.79 seconds

                                                       Time (seconds)
Module                                       User      System        Wall        Calls

--------------------------------------------------------------------------------------

**************************************************************************************

Host: headnode

Timers On : Sun Nov  9 16:35:51 2025
Timers Off: Sun Nov  9 16:35:52 2025

Wall Time:        0.91 seconds

                                                       Time (seconds)
Module                                       User      System        Wall        Calls

--------------------------------------------------------------------------------------

**************************************************************************************

Host: headnode

Timers On : Sun Nov  9 16:36:04 2025
Timers Off: Sun Nov  9 16:36:05 2025

Wall Time:        0.82 seconds

                                                       Time (seconds)
Module                                       User      System        Wall        Calls

--------------------------------------------------------------------------------------

**************************************************************************************

Host: headnode

Timers On : Sun Nov  9 16:39:47 2025
Timers Off: Sun Nov  9 16:39:48 2025

Wall Time:        0.79 seconds

                                                       Time (seconds)
Module                                       User      System        Wall        Calls

--------------------------------------------------------------------------------------

**************************************************************************************

Host: headnode

Timers On : Sun Nov  9 16:52:39 2025
Timers Off: Sun Nov  9 16:52:39 2025

Wall Time:        0.60 seconds

                                                       Time (seconds)
Module                                       User      System        Wall        Calls

--------------------------------------------------------------------------------------

**************************************************************************************

Host: headnode

Timers On : Sun Nov  9 16:52:44 2025
Timers Off: Sun Nov  9 16:52:45 2025

Wall Time:        0.83 seconds

                                                       Time (seconds)
Module                                       User      System        Wall        Calls

--------------------------------------------------------------------------------------

**************************************************************************************

Host: headnode

Timers On : Sun Nov  9 16:55:51 2025
Timers Off: Sun Nov  9 16:55:52 2025

Wall Time:        0.85 seconds

                                                       Time (seconds)
Module                                       User      System        Wall        Calls

--------------------------------------------------------------------------------------

**************************************************************************************

Host: headnode

Timers On : Sun Nov  9 16:56:28 2025
Timers Off: Sun Nov  9 16:56:29 2025

Wall Time:        0.85 seconds

                                                       Time (seconds)
Module                                       User      System        Wall        Calls

--------------------------------------------------------------------------------------

**************************************************************************************

Host: headnode

Timers On : Sun Nov  9 16:56:49 2025
Timers Off: Sun Nov  9 16:56:50 2025

Wall Time:        0.85 seconds

                                                       Time (seconds)
Module                                       User      System        Wall        Calls

--------------------------------------------------------------------------------------

**************************************************************************************

Host: headnode

Timers On : Sun Nov  9 16:59:05 2025
Timers Off: Sun Nov  9 16:59:06 2025

Wall Time:        0.85 seconds

                                                       Time (seconds)
Module                                       User      System        Wall        Calls

--------------------------------------------------------------------------------------

**************************************************************************************

Host: headnode

Timers On : Sun Nov  9 16:59:33 2025
Timers Off: Sun Nov  9 16:59:34 2025

Wall Time:        0.94 seconds

                                                       Time (seconds)
Module                                       User      System        Wall        Calls
Libint2ERI::Libint2ERI              :      0.000u      0.017s      0.009w      1 calls

--------------------------------------------------------------------------------------
Libint2ERI::Libint2ERI              :      0.000u      0.017s      0.009w      1 calls

**************************************************************************************

Host: headnode

Timers On : Sun Nov  9 17:01:56 2025
Timers Off: Sun Nov  9 17:01:57 2025

Wall Time:        0.92 seconds

                                                       Time (seconds)
Module                                       User      System        Wall        Calls
Libint2ERI::Libint2ERI              :      0.017u      0.017s      0.009w      2 calls

--------------------------------------------------------------------------------------
Libint2ERI::Libint2ERI              :      0.017u      0.017s      0.009w      2 calls

**************************************************************************************

Host: headnode

Timers On : Sun Nov  9 17:03:13 2025
Timers Off: Sun Nov  9 17:03:13 2025

Wall Time:        0.85 seconds

                                                       Time (seconds)
Module                                       User      System        Wall        Calls
Libint2ERI::Libint2ERI              :      0.000u      0.000s      0.008w      2 calls

--------------------------------------------------------------------------------------
Libint2ERI::Libint2ERI              :      0.000u      0.000s      0.008w      2 calls

**************************************************************************************

Host: headnode

Timers On : Sun Nov  9 18:39:45 2025
Timers Off: Sun Nov  9 18:39:46 2025

Wall Time:        0.95 seconds

                                                       Time (seconds)
Module                                       User      System        Wall        Calls
Libint2ERI::Libint2ERI              :      0.000u      0.017s      0.008w      2 calls

--------------------------------------------------------------------------------------
Libint2ERI::Libint2ERI              :      0.000u      0.017s      0.008w      2 calls

**************************************************************************************

Host: headnode

Timers On : Sun Nov  9 18:40:54 2025
Timers Off: Sun Nov  9 18:40:55 2025

Wall Time:        0.95 seconds

                                                       Time (seconds)
Module                                       User      System        Wall        Calls
Libint2ERI::Libint2ERI              :      0.000u      0.017s      0.009w      2 calls

--------------------------------------------------------------------------------------
Libint2ERI::Libint2ERI              :      0.000u      0.017s      0.009w      2 calls

**************************************************************************************

Host: headnode

Timers On : Sun Nov  9 18:41:31 2025
Timers Off: Sun Nov  9 18:41:32 2025

Wall Time:        0.96 seconds

                                                       Time (seconds)
Module                                       User      System        Wall        Calls
Libint2ERI::Libint2ERI              :      0.000u      0.017s      0.008w      2 calls

--------------------------------------------------------------------------------------
Libint2ERI::Libint2ERI              :      0.000u      0.017s      0.008w      2 calls

**************************************************************************************

Host: headnode

Timers On : Sun Nov  9 18:43:17 2025
Timers Off: Sun Nov  9 18:43:22 2025

Wall Time:        4.96 seconds

                                                       Time (seconds)
Module                                       User      System        Wall        Calls
Libint2ERI::Libint2ERI              :      0.000u      0.017s      0.016w      3 calls

--------------------------------------------------------------------------------------
Libint2ERI::Libint2ERI              :      0.000u      0.017s      0.016w      3 calls

**************************************************************************************

Host: headnode

Timers On : Sun Nov  9 18:46:53 2025
Timers Off: Sun Nov  9 18:46:58 2025

Wall Time:        4.89 seconds

                                                       Time (seconds)
Module                                       User      System        Wall        Calls
Libint2ERI::Libint2ERI              :      0.017u      0.000s      0.017w      3 calls

--------------------------------------------------------------------------------------
Libint2ERI::Libint2ERI              :      0.017u      0.000s      0.017w      3 calls

**************************************************************************************

Host: headnode

Timers On : Sun Nov  9 18:48:12 2025
Timers Off: Sun Nov  9 18:48:17 2025

Wall Time:        5.17 seconds

                                                       Time (seconds)
Module                                       User      System        Wall        Calls
Libint2ERI::Libint2ERI              :      0.017u      0.033s      0.020w      5 calls

--------------------------------------------------------------------------------------
Libint2ERI::Libint2ERI              :      0.017u      0.033s      0.020w      5 calls

**************************************************************************************

Host: headnode

Timers On : Sun Nov  9 18:49:05 2025
Timers Off: Sun Nov  9 18:49:10 2025

Wall Time:        4.98 seconds

                                                       Time (seconds)
Module                                       User      System        Wall        Calls
Libint2ERI::Libint2ERI              :      0.017u      0.017s      0.020w      5 calls

--------------------------------------------------------------------------------------
Libint2ERI::Libint2ERI              :      0.017u      0.017s      0.020w      5 calls

**************************************************************************************

Host: headnode

Timers On : Sun Nov  9 19:12:53 2025
Timers Off: Sun Nov  9 19:13:01 2025

Wall Time:        8.55 seconds

                                                       Time (seconds)
Module                                       User      System        Wall        Calls
Libint2ERI::Libint2ERI              :      0.000u      0.017s      0.009w      1 calls

--------------------------------------------------------------------------------------
Libint2ERI::Libint2ERI              :      0.000u      0.017s      0.009w      1 calls

**************************************************************************************

Host: headnode

Timers On : Sun Nov  9 19:13:29 2025
Timers Off: Sun Nov  9 19:13:38 2025

Wall Time:        8.55 seconds

                                                       Time (seconds)
Module                                       User      System        Wall        Calls
Libint2ERI::Libint2ERI              :      0.017u      0.000s      0.009w      1 calls

--------------------------------------------------------------------------------------
Libint2ERI::Libint2ERI              :      0.017u      0.000s      0.009w      1 calls

**************************************************************************************

Host: headnode

Timers On : Sun Nov  9 19:14:01 2025
Timers Off: Sun Nov  9 19:14:10 2025

Wall Time:        8.78 seconds

                                                       Time (seconds)
Module                                       User      System        Wall        Calls
Libint2ERI::Libint2ERI              :      0.033u      0.050s      0.025w      5 calls

--------------------------------------------------------------------------------------
Libint2ERI::Libint2ERI              :      0.033u      0.050s      0.025w      5 calls

**************************************************************************************

Host: headnode

Timers On : Sun Nov  9 19:15:16 2025
Timers Off: Sun Nov  9 19:15:25 2025

Wall Time:        8.88 seconds

                                                       Time (seconds)
Module                                       User      System        Wall        Calls
Libint2ERI::Libint2ERI              :      0.017u      0.017s      0.025w      5 calls

--------------------------------------------------------------------------------------
Libint2ERI::Libint2ERI              :      0.017u      0.017s      0.025w      5 calls

**************************************************************************************

Host: headnode

Timers On : Sun Nov  9 19:18:56 2025
Timers Off: Sun Nov  9 19:19:01 2025

Wall Time:        4.87 seconds

                                                       Time (seconds)
Module                                       User      System        Wall        Calls
Libint2ERI::Libint2ERI              :      0.017u      0.017s      0.021w      5 calls

--------------------------------------------------------------------------------------
Libint2ERI::Libint2ERI              :      0.017u      0.017s      0.021w      5 calls

**************************************************************************************

Host: headnode

Timers On : Sun Nov  9 19:21:46 2025
Timers Off: Sun Nov  9 19:21:46 2025

Wall Time:        0.67 seconds

                                                       Time (seconds)
Module                                       User      System        Wall        Calls

--------------------------------------------------------------------------------------

**************************************************************************************

Host: headnode

Timers On : Sun Nov  9 19:21:50 2025
Timers Off: Sun Nov  9 19:21:51 2025

Wall Time:        1.15 seconds

                                                       Time (seconds)
Module                                       User      System        Wall        Calls
Libint2ERI::Libint2ERI              :      0.017u      0.017s      0.021w      5 calls

--------------------------------------------------------------------------------------
Libint2ERI::Libint2ERI              :      0.017u      0.017s      0.021w      5 calls

**************************************************************************************

Host: headnode

Timers On : Sun Nov  9 19:22:32 2025
Timers Off: Sun Nov  9 19:22:33 2025

Wall Time:        1.14 seconds

                                                       Time (seconds)
Module                                       User      System        Wall        Calls
Libint2ERI::Libint2ERI              :      0.017u      0.017s      0.021w      5 calls

--------------------------------------------------------------------------------------
Libint2ERI::Libint2ERI              :      0.017u      0.017s      0.021w      5 calls

**************************************************************************************

Host: headnode

Timers On : Sun Nov  9 19:23:15 2025
Timers Off: Sun Nov  9 19:23:16 2025

Wall Time:        1.34 seconds

                                                       Time (seconds)
Module                                       User      System        Wall        Calls
Libint2ERI::Libint2ERI              :      0.033u      0.017s      0.023w      5 calls

--------------------------------------------------------------------------------------
Libint2ERI::Libint2ERI              :      0.033u      0.017s      0.023w      5 calls

**************************************************************************************

Host: headnode

Timers On : Sun Nov  9 19:23:33 2025
Timers Off: Sun Nov  9 19:23:34 2025

Wall Time:        1.19 seconds

                                                       Time (seconds)
Module                                       User      System        Wall        Calls
Libint2ERI::Libint2ERI              :      0.050u      0.017s      0.021w      5 calls

--------------------------------------------------------------------------------------
Libint2ERI::Libint2ERI              :      0.050u      0.017s      0.021w      5 calls

**************************************************************************************

Host: headnode

Timers On : Sun Nov  9 19:23:52 2025
Timers Off: Sun Nov  9 19:23:53 2025

Wall Time:        1.32 seconds

                                                       Time (seconds)
Module                                       User      System        Wall        Calls
Libint2ERI::Libint2ERI              :      0.017u      0.033s      0.024w      7 calls

--------------------------------------------------------------------------------------
Libint2ERI::Libint2ERI              :      0.017u      0.033s      0.024w      7 calls

**************************************************************************************

Host: headnode

Timers On : Sun Nov  9 19:27:22 2025
Timers Off: Sun Nov  9 19:27:23 2025

Wall Time:        1.29 seconds

                                                       Time (seconds)
Module                                       User      System        Wall        Calls
Libint2ERI::Libint2ERI              :      0.017u      0.000s      0.024w      7 calls

--------------------------------------------------------------------------------------
Libint2ERI::Libint2ERI              :      0.017u      0.000s      0.024w      7 calls

**************************************************************************************

Host: headnode

Timers On : Sun Nov  9 19:27:31 2025
Timers Off: Sun Nov  9 19:27:36 2025

Wall Time:        5.02 seconds

                                                       Time (seconds)
Module                                       User      System        Wall        Calls
Libint2ERI::Libint2ERI              :      0.017u      0.017s      0.033w      7 calls

--------------------------------------------------------------------------------------
Libint2ERI::Libint2ERI              :      0.017u      0.017s      0.033w      7 calls

**************************************************************************************

Host: headnode

Timers On : Sun Nov  9 19:28:29 2025
Timers Off: Sun Nov  9 19:28:30 2025

Wall Time:        0.86 seconds

                                                       Time (seconds)
Module                                       User      System        Wall        Calls

--------------------------------------------------------------------------------------

**************************************************************************************

Host: headnode

Timers On : Sun Nov  9 19:28:41 2025
Timers Off: Sun Nov  9 19:28:42 2025

Wall Time:        0.90 seconds

                                                       Time (seconds)
Module                                       User      System        Wall        Calls

--------------------------------------------------------------------------------------

**************************************************************************************

Host: headnode

Timers On : Sun Nov  9 19:30:54 2025
Timers Off: Sun Nov  9 19:30:59 2025

Wall Time:        5.02 seconds

                                                       Time (seconds)
Module                                       User      System        Wall        Calls
Libint2ERI::Libint2ERI              :      0.033u      0.033s      0.033w      7 calls

--------------------------------------------------------------------------------------
Libint2ERI::Libint2ERI              :      0.033u      0.033s      0.033w      7 calls

**************************************************************************************

Host: headnode

Timers On : Sun Nov  9 19:32:30 2025
Timers Off: Sun Nov  9 19:32:35 2025

Wall Time:        5.34 seconds

                                                       Time (seconds)
Module                                       User      System        Wall        Calls
Libint2ERI::Libint2ERI              :      0.033u      0.067s      0.042w      9 calls

--------------------------------------------------------------------------------------
Libint2ERI::Libint2ERI              :      0.033u      0.067s      0.042w      9 calls

**************************************************************************************

Host: headnode

Timers On : Sun Nov  9 19:38:58 2025
Timers Off: Sun Nov  9 19:39:04 2025

Wall Time:        5.19 seconds

                                                       Time (seconds)
Module                                       User      System        Wall        Calls
Libint2ERI::Libint2ERI              :      0.000u      0.000s      0.009w      1 calls

--------------------------------------------------------------------------------------
Libint2ERI::Libint2ERI              :      0.000u      0.000s      0.009w      1 calls

**************************************************************************************

Host: headnode

Timers On : Sun Nov  9 19:39:30 2025
Timers Off: Sun Nov  9 19:39:31 2025

Wall Time:        1.40 seconds

                                                       Time (seconds)
Module                                       User      System        Wall        Calls
Libint2ERI::Libint2ERI              :      0.017u      0.067s      0.041w      9 calls

--------------------------------------------------------------------------------------
Libint2ERI::Libint2ERI              :      0.017u      0.067s      0.041w      9 calls

**************************************************************************************

Host: headnode

Timers On : Sun Nov  9 20:16:39 2025
Timers Off: Sun Nov  9 20:16:40 2025

Wall Time:        1.39 seconds

                                                       Time (seconds)
Module                                       User      System        Wall        Calls
Libint2ERI::Libint2ERI              :      0.050u      0.017s      0.038w      9 calls

--------------------------------------------------------------------------------------
Libint2ERI::Libint2ERI              :      0.050u      0.017s      0.038w      9 calls

**************************************************************************************

Host: headnode

Timers On : Thu Jul  9 06:13:18 2026
Timers Off: Thu Jul  9 06:13:20 2026

Wall Time:        1.92 seconds

                                                       Time (seconds)
Module                                       User      System        Wall        Calls
Libint2ERI::Libint2ERI              :      0.017u      0.017s      0.036w      9 calls

--------------------------------------------------------------------------------------
Libint2ERI::Libint2ERI              :      0.017u      0.017s      0.036w      9 calls

**************************************************************************************
