
Host: vlogin2.ccqc.uga.edu

Timers On : Wed Jun  5 15:14:23 2024
Timers Off: Wed Jun  5 15:14:27 2024

Wall Time:        4.58 seconds

                                                       Time (seconds)
Module                                       User      System        Wall        Calls
Libint2ERI::Libint2ERI              :      0.000u      0.017s      0.001w      1 calls

--------------------------------------------------------------------------------------
Libint2ERI::Libint2ERI              :      0.000u      0.017s      0.001w      1 calls

**************************************************************************************

Host: vlogin2.ccqc.uga.edu

Timers On : Sun Jun  9 20:38:56 2024
Timers Off: Sun Jun  9 20:39:02 2024

Wall Time:        5.48 seconds

                                                       Time (seconds)
Module                                       User      System        Wall        Calls
Libint2ERI::Libint2ERI              :      0.000u      0.000s      0.001w      1 calls

--------------------------------------------------------------------------------------
Libint2ERI::Libint2ERI              :      0.000u      0.000s      0.001w      1 calls

**************************************************************************************

Host: vlogin2.ccqc.uga.edu

Timers On : Sun Jun  9 20:50:26 2024
Timers Off: Sun Jun  9 20:50:31 2024

Wall Time:        4.51 seconds

                                                       Time (seconds)
Module                                       User      System        Wall        Calls
Libint2ERI::Libint2ERI              :      0.000u      0.000s      0.001w      1 calls

--------------------------------------------------------------------------------------
Libint2ERI::Libint2ERI              :      0.000u      0.000s      0.001w      1 calls

**************************************************************************************

Host: vlogin2.ccqc.uga.edu

Timers On : Sun Jun  9 20:57:48 2024
Timers Off: Sun Jun  9 20:57:52 2024

Wall Time:        4.41 seconds

                                                       Time (seconds)
Module                                       User      System        Wall        Calls
Libint2ERI::Libint2ERI              :      0.000u      0.017s      0.001w      1 calls

--------------------------------------------------------------------------------------
Libint2ERI::Libint2ERI              :      0.000u      0.017s      0.001w      1 calls

**************************************************************************************

Host: vlogin2.ccqc.uga.edu

Timers On : Sun Jun  9 20:58:26 2024
Timers Off: Sun Jun  9 20:58:29 2024

Wall Time:        3.66 seconds

                                                       Time (seconds)
Module                                       User      System        Wall        Calls
Libint2ERI::Libint2ERI              :      0.000u      0.000s      0.001w      1 calls

--------------------------------------------------------------------------------------
Libint2ERI::Libint2ERI              :      0.000u      0.000s      0.001w      1 calls

**************************************************************************************

Host: vlogin2.ccqc.uga.edu

Timers On : Sun Jun  9 20:59:24 2024
Timers Off: Sun Jun  9 20:59:28 2024

Wall Time:        4.35 seconds

                                                       Time (seconds)
Module                                       User      System        Wall        Calls
Libint2ERI::Libint2ERI              :      0.000u      0.000s      0.001w      1 calls

--------------------------------------------------------------------------------------
Libint2ERI::Libint2ERI              :      0.000u      0.000s      0.001w      1 calls

**************************************************************************************

Host: vlogin2.ccqc.uga.edu

Timers On : Sun Jun  9 21:00:00 2024
Timers Off: Sun Jun  9 21:00:04 2024

Wall Time:        3.75 seconds

                                                       Time (seconds)
Module                                       User      System        Wall        Calls
Libint2ERI::Libint2ERI              :      0.000u      0.000s      0.001w      1 calls

--------------------------------------------------------------------------------------
Libint2ERI::Libint2ERI              :      0.000u      0.000s      0.001w      1 calls

**************************************************************************************

Host: vlogin2.ccqc.uga.edu

Timers On : Sun Jun  9 21:01:56 2024
Timers Off: Sun Jun  9 21:02:00 2024

Wall Time:        4.43 seconds

                                                       Time (seconds)
Module                                       User      System        Wall        Calls
Libint2ERI::Libint2ERI              :      0.000u      0.000s      0.001w      1 calls

--------------------------------------------------------------------------------------
Libint2ERI::Libint2ERI              :      0.000u      0.000s      0.001w      1 calls

**************************************************************************************

Host: vlogin2.ccqc.uga.edu

Timers On : Sun Jun  9 21:02:41 2024
Timers Off: Sun Jun  9 21:02:44 2024

Wall Time:        3.63 seconds

                                                       Time (seconds)
Module                                       User      System        Wall        Calls
Libint2ERI::Libint2ERI              :      0.000u      0.000s      0.001w      1 calls

--------------------------------------------------------------------------------------
Libint2ERI::Libint2ERI              :      0.000u      0.000s      0.001w      1 calls

**************************************************************************************

Host: vlogin2.ccqc.uga.edu

Timers On : Sun Jun  9 21:04:43 2024
Timers Off: Sun Jun  9 21:04:47 2024

Wall Time:        4.38 seconds

                                                       Time (seconds)
Module                                       User      System        Wall        Calls
Libint2ERI::Libint2ERI              :      0.000u      0.000s      0.001w      1 calls

--------------------------------------------------------------------------------------
Libint2ERI::Libint2ERI              :      0.000u      0.000s      0.001w      1 calls

**************************************************************************************

Host: vlogin2.ccqc.uga.edu

Timers On : Fri Jul 12 13:16:52 2024
Timers Off: Fri Jul 12 13:25:44 2024

Wall Time:      531.67 seconds

                                                       Time (seconds)
Module                                       User      System        Wall        Calls
Libint2ERI::Libint2ERI              :      0.000u      0.000s      0.112w      1 calls

--------------------------------------------------------------------------------------
Libint2ERI::Libint2ERI              :      0.000u      0.000s      0.112w      1 calls

**************************************************************************************

Host: vlogin2.ccqc.uga.edu

Timers On : Thu Oct 10 16:08:51 2024
Timers Off: Thu Oct 10 16:08:54 2024

Wall Time:        2.61 seconds

                                                       Time (seconds)
Module                                       User      System        Wall        Calls
Libint2ERI::Libint2ERI              :      0.000u      0.000s      0.001w      1 calls

--------------------------------------------------------------------------------------
Libint2ERI::Libint2ERI              :      0.000u      0.000s      0.001w      1 calls

**************************************************************************************

Host: vlogin2.ccqc.uga.edu

Timers On : Thu Oct 10 16:09:41 2024
Timers Off: Thu Oct 10 16:09:45 2024

Wall Time:        3.72 seconds

                                                       Time (seconds)
Module                                       User      System        Wall        Calls
Libint2ERI::Libint2ERI              :      0.000u      0.000s      0.001w      1 calls

--------------------------------------------------------------------------------------
Libint2ERI::Libint2ERI              :      0.000u      0.000s      0.001w      1 calls

**************************************************************************************

Host: vlogin2.ccqc.uga.edu

Timers On : Thu Oct 10 16:10:33 2024
Timers Off: Thu Oct 10 16:10:34 2024

Wall Time:        1.49 seconds

                                                       Time (seconds)
Module                                       User      System        Wall        Calls
Libint2ERI::Libint2ERI              :      0.000u      0.000s      0.001w      1 calls

--------------------------------------------------------------------------------------
Libint2ERI::Libint2ERI              :      0.000u      0.000s      0.001w      1 calls

**************************************************************************************

Host: vlogin2.ccqc.uga.edu

Timers On : Thu Oct 10 16:13:10 2024
Timers Off: Thu Oct 10 16:13:12 2024

Wall Time:        2.28 seconds

                                                       Time (seconds)
Module                                       User      System        Wall        Calls
Libint2ERI::Libint2ERI              :      0.000u      0.000s      0.001w      1 calls

--------------------------------------------------------------------------------------
Libint2ERI::Libint2ERI              :      0.000u      0.000s      0.001w      1 calls

**************************************************************************************

Host: vlogin2.ccqc.uga.edu

Timers On : Thu Oct 10 16:13:38 2024
Timers Off: Thu Oct 10 16:14:06 2024

Wall Time:       28.23 seconds

                                                       Time (seconds)
Module                                       User      System        Wall        Calls
Libint2ERI::Libint2ERI              :      0.017u      0.000s      0.002w      1 calls

--------------------------------------------------------------------------------------
Libint2ERI::Libint2ERI              :      0.017u      0.000s      0.002w      1 calls

**************************************************************************************

Host: vlogin2.ccqc.uga.edu

Timers On : Thu Oct 10 16:14:57 2024
Timers Off: Thu Oct 10 16:15:26 2024

Wall Time:       29.03 seconds

                                                       Time (seconds)
Module                                       User      System        Wall        Calls
Libint2ERI::Libint2ERI              :      0.017u      0.000s      0.006w      3 calls
Total PK formation time             :      0.133u      0.000s      0.072w      1 calls
HF: Form core H                     :      0.000u      0.017s      0.081w      1 calls
HF: Form S/X                        :      0.000u      0.000s      0.001w      1 calls
HF: Guess                           :      0.000u      0.000s      0.002w      1 calls
HF: Form G                          :      0.000u      0.000s      0.002w     18 calls
JK: D                               :      0.000u      0.000s      0.000w     18 calls
JK: USO2AO                          :      0.000u      0.000s      0.001w     18 calls
JK: JK                              :      0.000u      0.000s      0.001w     18 calls
PK computes JK                      :      0.000u      0.000s      0.000w     18 calls
JK: AO2USO                          :      0.000u      0.000s      0.000w     18 calls
HF: Form F                          :      0.017u      0.000s      0.000w     18 calls
HF: DIIS                            :      0.000u      0.000s      0.019w     18 calls
DIISManager::add_entry              :      0.000u      0.000s      0.010w     18 calls
DIISManager::extrapolate            :      0.000u      0.000s      0.002w     18 calls
bMatrix setup                       :      0.000u      0.000s      0.001w     18 calls
bMatrix pseudoinverse               :      0.000u      0.000s      0.001w     18 calls
New vector                          :      0.000u      0.000s      0.001w     18 calls
HF: Form C                          :      0.000u      0.000s      0.001w     18 calls
HF: Form D                          :      0.000u      0.000s      0.000w     18 calls

--------------------------------------------------------------------------------------
Libint2ERI::Libint2ERI              :      0.017u      0.000s      0.002w      1 calls
Total PK formation time             :      0.133u      0.000s      0.072w      1 calls
| Libint2ERI::Libint2ERI            :      0.000u      0.000s      0.003w      2 calls
HF: Form core H                     :      0.000u      0.017s      0.081w      1 calls
HF: Form S/X                        :      0.000u      0.000s      0.001w      1 calls
HF: Guess                           :      0.000u      0.000s      0.002w      1 calls
HF: Form G                          :      0.000u      0.000s      0.002w     18 calls
| JK: D                             :      0.000u      0.000s      0.000w     18 calls
| JK: USO2AO                        :      0.000u      0.000s      0.001w     18 calls
| JK: JK                            :      0.000u      0.000s      0.001w     18 calls
| | PK computes JK                  :      0.000u      0.000s      0.000w     18 calls
| JK: AO2USO                        :      0.000u      0.000s      0.000w     18 calls
HF: Form F                          :      0.017u      0.000s      0.000w     18 calls
HF: DIIS                            :      0.000u      0.000s      0.019w     18 calls
| DIISManager::add_entry            :      0.000u      0.000s      0.010w     18 calls
| DIISManager::extrapolate          :      0.000u      0.000s      0.002w     18 calls
| | bMatrix setup                   :      0.000u      0.000s      0.001w     18 calls
| | bMatrix pseudoinverse           :      0.000u      0.000s      0.001w     18 calls
| | New vector                      :      0.000u      0.000s      0.001w     18 calls
HF: Form C                          :      0.000u      0.000s      0.001w     18 calls
HF: Form D                          :      0.000u      0.000s      0.000w     18 calls

**************************************************************************************

Host: vlogin2.ccqc.uga.edu

Timers On : Thu Oct 10 16:20:14 2024
Timers Off: Thu Oct 10 16:20:16 2024

Wall Time:        2.22 seconds

                                                       Time (seconds)
Module                                       User      System        Wall        Calls

--------------------------------------------------------------------------------------

**************************************************************************************

Host: vlogin2.ccqc.uga.edu

Timers On : Thu Oct 10 16:20:35 2024
Timers Off: Thu Oct 10 16:21:03 2024

Wall Time:       27.37 seconds

                                                       Time (seconds)
Module                                       User      System        Wall        Calls
Libint2ERI::Libint2ERI              :      0.000u      0.000s      0.006w      3 calls
Total PK formation time             :      0.117u      0.000s      0.071w      1 calls
HF: Form core H                     :      0.017u      0.000s      0.088w      1 calls
HF: Form S/X                        :      0.000u      0.000s      0.001w      1 calls
HF: Guess                           :      0.000u      0.000s      0.002w      1 calls
HF: Form G                          :      0.000u      0.000s      0.002w     18 calls
JK: D                               :      0.000u      0.000s      0.000w     18 calls
JK: USO2AO                          :      0.000u      0.000s      0.001w     18 calls
JK: JK                              :      0.000u      0.000s      0.001w     18 calls
PK computes JK                      :      0.000u      0.000s      0.000w     18 calls
JK: AO2USO                          :      0.000u      0.000s      0.000w     18 calls
HF: Form F                          :      0.000u      0.000s      0.000w     18 calls
HF: DIIS                            :      0.017u      0.033s      0.014w     18 calls
DIISManager::add_entry              :      0.000u      0.000s      0.005w     18 calls
DIISManager::extrapolate            :      0.000u      0.000s      0.002w     18 calls
bMatrix setup                       :      0.000u      0.000s      0.001w     18 calls
bMatrix pseudoinverse               :      0.000u      0.000s      0.001w     18 calls
New vector                          :      0.000u      0.000s      0.001w     18 calls
HF: Form C                          :      0.000u      0.000s      0.001w     18 calls
HF: Form D                          :      0.000u      0.000s      0.000w     18 calls

--------------------------------------------------------------------------------------
Libint2ERI::Libint2ERI              :      0.000u      0.000s      0.003w      1 calls
Total PK formation time             :      0.117u      0.000s      0.071w      1 calls
| Libint2ERI::Libint2ERI            :      0.000u      0.000s      0.003w      2 calls
HF: Form core H                     :      0.017u      0.000s      0.088w      1 calls
HF: Form S/X                        :      0.000u      0.000s      0.001w      1 calls
HF: Guess                           :      0.000u      0.000s      0.002w      1 calls
HF: Form G                          :      0.000u      0.000s      0.002w     18 calls
| JK: D                             :      0.000u      0.000s      0.000w     18 calls
| JK: USO2AO                        :      0.000u      0.000s      0.001w     18 calls
| JK: JK                            :      0.000u      0.000s      0.001w     18 calls
| | PK computes JK                  :      0.000u      0.000s      0.000w     18 calls
| JK: AO2USO                        :      0.000u      0.000s      0.000w     18 calls
HF: Form F                          :      0.000u      0.000s      0.000w     18 calls
HF: DIIS                            :      0.017u      0.033s      0.014w     18 calls
| DIISManager::add_entry            :      0.000u      0.000s      0.005w     18 calls
| DIISManager::extrapolate          :      0.000u      0.000s      0.002w     18 calls
| | bMatrix setup                   :      0.000u      0.000s      0.001w     18 calls
| | bMatrix pseudoinverse           :      0.000u      0.000s      0.001w     18 calls
| | New vector                      :      0.000u      0.000s      0.001w     18 calls
HF: Form C                          :      0.000u      0.000s      0.001w     18 calls
HF: Form D                          :      0.000u      0.000s      0.000w     18 calls

**************************************************************************************

Host: vlogin2.ccqc.uga.edu

Timers On : Thu Oct 10 16:37:58 2024
Timers Off: Thu Oct 10 16:38:27 2024

Wall Time:       29.30 seconds

                                                       Time (seconds)
Module                                       User      System        Wall        Calls
Libint2ERI::Libint2ERI              :      0.000u      0.000s      0.002w      1 calls

--------------------------------------------------------------------------------------
Libint2ERI::Libint2ERI              :      0.000u      0.000s      0.002w      1 calls

**************************************************************************************

Host: vlogin2.ccqc.uga.edu

Timers On : Thu Oct 10 16:39:42 2024
Timers Off: Thu Oct 10 16:40:11 2024

Wall Time:       28.21 seconds

                                                       Time (seconds)
Module                                       User      System        Wall        Calls
Libint2ERI::Libint2ERI              :      0.000u      0.000s      0.006w      3 calls
Total PK formation time             :      0.117u      0.000s      0.071w      1 calls
HF: Form core H                     :      0.017u      0.000s      0.037w      1 calls
HF: Form S/X                        :      0.000u      0.000s      0.001w      1 calls
HF: Guess                           :      0.000u      0.017s      0.002w      1 calls
HF: Form G                          :      0.017u      0.000s      0.002w     18 calls
JK: D                               :      0.017u      0.000s      0.000w     18 calls
JK: USO2AO                          :      0.000u      0.000s      0.001w     18 calls
JK: JK                              :      0.000u      0.000s      0.001w     18 calls
PK computes JK                      :      0.000u      0.000s      0.000w     18 calls
JK: AO2USO                          :      0.000u      0.000s      0.000w     18 calls
HF: Form F                          :      0.000u      0.000s      0.000w     18 calls
HF: DIIS                            :      0.033u      0.000s      0.022w     18 calls
DIISManager::add_entry              :      0.000u      0.000s      0.013w     18 calls
DIISManager::extrapolate            :      0.000u      0.000s      0.002w     18 calls
bMatrix setup                       :      0.000u      0.000s      0.001w     18 calls
bMatrix pseudoinverse               :      0.000u      0.000s      0.001w     18 calls
New vector                          :      0.000u      0.000s      0.001w     18 calls
HF: Form C                          :      0.000u      0.000s      0.001w     18 calls
HF: Form D                          :      0.000u      0.000s      0.000w     18 calls

--------------------------------------------------------------------------------------
Libint2ERI::Libint2ERI              :      0.000u      0.000s      0.002w      1 calls
Total PK formation time             :      0.117u      0.000s      0.071w      1 calls
| Libint2ERI::Libint2ERI            :      0.000u      0.000s      0.003w      2 calls
HF: Form core H                     :      0.017u      0.000s      0.037w      1 calls
HF: Form S/X                        :      0.000u      0.000s      0.001w      1 calls
HF: Guess                           :      0.000u      0.017s      0.002w      1 calls
HF: Form G                          :      0.017u      0.000s      0.002w     18 calls
| JK: D                             :      0.017u      0.000s      0.000w     18 calls
| JK: USO2AO                        :      0.000u      0.000s      0.001w     18 calls
| JK: JK                            :      0.000u      0.000s      0.001w     18 calls
| | PK computes JK                  :      0.000u      0.000s      0.000w     18 calls
| JK: AO2USO                        :      0.000u      0.000s      0.000w     18 calls
HF: Form F                          :      0.000u      0.000s      0.000w     18 calls
HF: DIIS                            :      0.033u      0.000s      0.022w     18 calls
| DIISManager::add_entry            :      0.000u      0.000s      0.013w     18 calls
| DIISManager::extrapolate          :      0.000u      0.000s      0.002w     18 calls
| | bMatrix setup                   :      0.000u      0.000s      0.001w     18 calls
| | bMatrix pseudoinverse           :      0.000u      0.000s      0.001w     18 calls
| | New vector                      :      0.000u      0.000s      0.001w     18 calls
HF: Form C                          :      0.000u      0.000s      0.001w     18 calls
HF: Form D                          :      0.000u      0.000s      0.000w     18 calls

**************************************************************************************

Host: vlogin2.ccqc.uga.edu

Timers On : Thu Oct 10 16:40:54 2024
Timers Off: Thu Oct 10 16:41:21 2024

Wall Time:       27.09 seconds

                                                       Time (seconds)
Module                                       User      System        Wall        Calls
Libint2ERI::Libint2ERI              :      0.033u      0.000s      0.006w      3 calls
Total PK formation time             :      0.117u      0.000s      0.071w      1 calls
HF: Form core H                     :      0.017u      0.000s      0.026w      1 calls
HF: Form S/X                        :      0.000u      0.000s      0.001w      1 calls
HF: Guess                           :      0.000u      0.000s      0.002w      1 calls
HF: Form G                          :      0.000u      0.000s      0.002w     18 calls
JK: D                               :      0.000u      0.000s      0.000w     18 calls
JK: USO2AO                          :      0.000u      0.000s      0.001w     18 calls
JK: JK                              :      0.000u      0.000s      0.001w     18 calls
PK computes JK                      :      0.000u      0.000s      0.000w     18 calls
JK: AO2USO                          :      0.000u      0.000s      0.000w     18 calls
HF: Form F                          :      0.000u      0.000s      0.000w     18 calls
HF: DIIS                            :      0.000u      0.000s      0.017w     18 calls
DIISManager::add_entry              :      0.000u      0.000s      0.008w     18 calls
DIISManager::extrapolate            :      0.000u      0.000s      0.002w     18 calls
bMatrix setup                       :      0.000u      0.000s      0.001w     18 calls
bMatrix pseudoinverse               :      0.000u      0.000s      0.001w     18 calls
New vector                          :      0.000u      0.000s      0.001w     18 calls
HF: Form C                          :      0.000u      0.000s      0.001w     18 calls
HF: Form D                          :      0.000u      0.000s      0.000w     18 calls

--------------------------------------------------------------------------------------
Libint2ERI::Libint2ERI              :      0.017u      0.000s      0.002w      1 calls
Total PK formation time             :      0.117u      0.000s      0.071w      1 calls
| Libint2ERI::Libint2ERI            :      0.017u      0.000s      0.003w      2 calls
HF: Form core H                     :      0.017u      0.000s      0.026w      1 calls
HF: Form S/X                        :      0.000u      0.000s      0.001w      1 calls
HF: Guess                           :      0.000u      0.000s      0.002w      1 calls
HF: Form G                          :      0.000u      0.000s      0.002w     18 calls
| JK: D                             :      0.000u      0.000s      0.000w     18 calls
| JK: USO2AO                        :      0.000u      0.000s      0.001w     18 calls
| JK: JK                            :      0.000u      0.000s      0.001w     18 calls
| | PK computes JK                  :      0.000u      0.000s      0.000w     18 calls
| JK: AO2USO                        :      0.000u      0.000s      0.000w     18 calls
HF: Form F                          :      0.000u      0.000s      0.000w     18 calls
HF: DIIS                            :      0.000u      0.000s      0.017w     18 calls
| DIISManager::add_entry            :      0.000u      0.000s      0.008w     18 calls
| DIISManager::extrapolate          :      0.000u      0.000s      0.002w     18 calls
| | bMatrix setup                   :      0.000u      0.000s      0.001w     18 calls
| | bMatrix pseudoinverse           :      0.000u      0.000s      0.001w     18 calls
| | New vector                      :      0.000u      0.000s      0.001w     18 calls
HF: Form C                          :      0.000u      0.000s      0.001w     18 calls
HF: Form D                          :      0.000u      0.000s      0.000w     18 calls

**************************************************************************************

Host: vlogin2.ccqc.uga.edu

Timers On : Thu Oct 10 16:41:46 2024
Timers Off: Thu Oct 10 16:42:00 2024

Wall Time:       14.44 seconds

                                                       Time (seconds)
Module                                       User      System        Wall        Calls
Libint2ERI::Libint2ERI              :      0.000u      0.000s      0.001w      3 calls
Total PK formation time             :      0.000u      0.000s      0.005w      1 calls
HF: Form core H                     :      0.000u      0.000s      0.006w      1 calls
HF: Form S/X                        :      0.000u      0.000s      0.000w      1 calls
HF: Guess                           :      0.000u      0.000s      0.001w      1 calls
HF: Form G                          :      0.000u      0.000s      0.001w     10 calls
JK: D                               :      0.000u      0.000s      0.000w     10 calls
JK: USO2AO                          :      0.000u      0.000s      0.000w     10 calls
JK: JK                              :      0.000u      0.000s      0.000w     10 calls
PK computes JK                      :      0.000u      0.000s      0.000w     10 calls
JK: AO2USO                          :      0.000u      0.000s      0.000w     10 calls
HF: Form F                          :      0.000u      0.000s      0.000w     10 calls
HF: DIIS                            :      0.017u      0.000s      0.028w     10 calls
DIISManager::add_entry              :      0.000u      0.000s      0.024w     10 calls
DIISManager::extrapolate            :      0.000u      0.000s      0.001w     10 calls
bMatrix setup                       :      0.000u      0.000s      0.000w     10 calls
bMatrix pseudoinverse               :      0.000u      0.000s      0.000w     10 calls
New vector                          :      0.000u      0.000s      0.000w     10 calls
HF: Form C                          :      0.000u      0.000s      0.001w     10 calls
HF: Form D                          :      0.000u      0.000s      0.000w     10 calls

--------------------------------------------------------------------------------------
Libint2ERI::Libint2ERI              :      0.000u      0.000s      0.001w      1 calls
Total PK formation time             :      0.000u      0.000s      0.005w      1 calls
| Libint2ERI::Libint2ERI            :      0.000u      0.000s      0.000w      2 calls
HF: Form core H                     :      0.000u      0.000s      0.006w      1 calls
HF: Form S/X                        :      0.000u      0.000s      0.000w      1 calls
HF: Guess                           :      0.000u      0.000s      0.001w      1 calls
HF: Form G                          :      0.000u      0.000s      0.001w     10 calls
| JK: D                             :      0.000u      0.000s      0.000w     10 calls
| JK: USO2AO                        :      0.000u      0.000s      0.000w     10 calls
| JK: JK                            :      0.000u      0.000s      0.000w     10 calls
| | PK computes JK                  :      0.000u      0.000s      0.000w     10 calls
| JK: AO2USO                        :      0.000u      0.000s      0.000w     10 calls
HF: Form F                          :      0.000u      0.000s      0.000w     10 calls
HF: DIIS                            :      0.017u      0.000s      0.028w     10 calls
| DIISManager::add_entry            :      0.000u      0.000s      0.024w     10 calls
| DIISManager::extrapolate          :      0.000u      0.000s      0.001w     10 calls
| | bMatrix setup                   :      0.000u      0.000s      0.000w     10 calls
| | bMatrix pseudoinverse           :      0.000u      0.000s      0.000w     10 calls
| | New vector                      :      0.000u      0.000s      0.000w     10 calls
HF: Form C                          :      0.000u      0.000s      0.001w     10 calls
HF: Form D                          :      0.000u      0.000s      0.000w     10 calls

**************************************************************************************

Host: vlogin2.ccqc.uga.edu

Timers On : Fri Oct 11 21:48:16 2024
Timers Off: Fri Oct 11 21:48:22 2024

Wall Time:        5.93 seconds

                                                       Time (seconds)
Module                                       User      System        Wall        Calls
Libint2ERI::Libint2ERI              :      0.000u      0.000s      0.002w      3 calls
Total PK formation time             :      0.000u      0.000s      0.005w      1 calls
HF: Form core H                     :      0.000u      0.000s      0.021w      1 calls
HF: Form S/X                        :      0.000u      0.000s      0.000w      1 calls
HF: Guess                           :      0.000u      0.000s      0.001w      1 calls
HF: Form G                          :      0.000u      0.000s      0.001w     10 calls
JK: D                               :      0.000u      0.000s      0.000w     10 calls
JK: USO2AO                          :      0.000u      0.000s      0.000w     10 calls
JK: JK                              :      0.000u      0.000s      0.000w     10 calls
PK computes JK                      :      0.000u      0.000s      0.000w     10 calls
JK: AO2USO                          :      0.000u      0.000s      0.000w     10 calls
HF: Form F                          :      0.000u      0.000s      0.000w     10 calls
HF: DIIS                            :      0.000u      0.000s      0.015w     10 calls
DIISManager::add_entry              :      0.000u      0.000s      0.011w     10 calls
DIISManager::extrapolate            :      0.000u      0.000s      0.001w     10 calls
bMatrix setup                       :      0.000u      0.000s      0.000w     10 calls
bMatrix pseudoinverse               :      0.000u      0.000s      0.000w     10 calls
New vector                          :      0.000u      0.000s      0.000w     10 calls
HF: Form C                          :      0.000u      0.000s      0.001w     10 calls
HF: Form D                          :      0.000u      0.000s      0.000w     10 calls

--------------------------------------------------------------------------------------
Libint2ERI::Libint2ERI              :      0.000u      0.000s      0.001w      1 calls
Total PK formation time             :      0.000u      0.000s      0.005w      1 calls
| Libint2ERI::Libint2ERI            :      0.000u      0.000s      0.000w      2 calls
HF: Form core H                     :      0.000u      0.000s      0.021w      1 calls
HF: Form S/X                        :      0.000u      0.000s      0.000w      1 calls
HF: Guess                           :      0.000u      0.000s      0.001w      1 calls
HF: Form G                          :      0.000u      0.000s      0.001w     10 calls
| JK: D                             :      0.000u      0.000s      0.000w     10 calls
| JK: USO2AO                        :      0.000u      0.000s      0.000w     10 calls
| JK: JK                            :      0.000u      0.000s      0.000w     10 calls
| | PK computes JK                  :      0.000u      0.000s      0.000w     10 calls
| JK: AO2USO                        :      0.000u      0.000s      0.000w     10 calls
HF: Form F                          :      0.000u      0.000s      0.000w     10 calls
HF: DIIS                            :      0.000u      0.000s      0.015w     10 calls
| DIISManager::add_entry            :      0.000u      0.000s      0.011w     10 calls
| DIISManager::extrapolate          :      0.000u      0.000s      0.001w     10 calls
| | bMatrix setup                   :      0.000u      0.000s      0.000w     10 calls
| | bMatrix pseudoinverse           :      0.000u      0.000s      0.000w     10 calls
| | New vector                      :      0.000u      0.000s      0.000w     10 calls
HF: Form C                          :      0.000u      0.000s      0.001w     10 calls
HF: Form D                          :      0.000u      0.000s      0.000w     10 calls

**************************************************************************************

Host: vlogin2.ccqc.uga.edu

Timers On : Fri Oct 11 21:48:31 2024
Timers Off: Fri Oct 11 21:48:33 2024

Wall Time:        1.80 seconds

                                                       Time (seconds)
Module                                       User      System        Wall        Calls
Libint2ERI::Libint2ERI              :      0.000u      0.000s      0.002w      3 calls
Total PK formation time             :      0.017u      0.000s      0.005w      1 calls
HF: Form core H                     :      0.000u      0.000s      0.023w      1 calls
HF: Form S/X                        :      0.000u      0.000s      0.000w      1 calls
HF: Guess                           :      0.000u      0.000s      0.001w      1 calls
HF: Form G                          :      0.000u      0.000s      0.001w     10 calls
JK: D                               :      0.000u      0.000s      0.000w     10 calls
JK: USO2AO                          :      0.000u      0.000s      0.000w     10 calls
JK: JK                              :      0.000u      0.000s      0.000w     10 calls
PK computes JK                      :      0.000u      0.000s      0.000w     10 calls
JK: AO2USO                          :      0.000u      0.000s      0.000w     10 calls
HF: Form F                          :      0.000u      0.000s      0.000w     10 calls
HF: DIIS                            :      0.000u      0.000s      0.014w     10 calls
DIISManager::add_entry              :      0.000u      0.000s      0.009w     10 calls
DIISManager::extrapolate            :      0.000u      0.000s      0.001w     10 calls
bMatrix setup                       :      0.000u      0.000s      0.000w     10 calls
bMatrix pseudoinverse               :      0.000u      0.000s      0.000w     10 calls
New vector                          :      0.000u      0.000s      0.000w     10 calls
HF: Form C                          :      0.000u      0.000s      0.001w     10 calls
HF: Form D                          :      0.000u      0.000s      0.000w     10 calls

--------------------------------------------------------------------------------------
Libint2ERI::Libint2ERI              :      0.000u      0.000s      0.001w      1 calls
Total PK formation time             :      0.017u      0.000s      0.005w      1 calls
| Libint2ERI::Libint2ERI            :      0.000u      0.000s      0.000w      2 calls
HF: Form core H                     :      0.000u      0.000s      0.023w      1 calls
HF: Form S/X                        :      0.000u      0.000s      0.000w      1 calls
HF: Guess                           :      0.000u      0.000s      0.001w      1 calls
HF: Form G                          :      0.000u      0.000s      0.001w     10 calls
| JK: D                             :      0.000u      0.000s      0.000w     10 calls
| JK: USO2AO                        :      0.000u      0.000s      0.000w     10 calls
| JK: JK                            :      0.000u      0.000s      0.000w     10 calls
| | PK computes JK                  :      0.000u      0.000s      0.000w     10 calls
| JK: AO2USO                        :      0.000u      0.000s      0.000w     10 calls
HF: Form F                          :      0.000u      0.000s      0.000w     10 calls
HF: DIIS                            :      0.000u      0.000s      0.014w     10 calls
| DIISManager::add_entry            :      0.000u      0.000s      0.009w     10 calls
| DIISManager::extrapolate          :      0.000u      0.000s      0.001w     10 calls
| | bMatrix setup                   :      0.000u      0.000s      0.000w     10 calls
| | bMatrix pseudoinverse           :      0.000u      0.000s      0.000w     10 calls
| | New vector                      :      0.000u      0.000s      0.000w     10 calls
HF: Form C                          :      0.000u      0.000s      0.001w     10 calls
HF: Form D                          :      0.000u      0.000s      0.000w     10 calls

**************************************************************************************

Host: vlogin2.ccqc.uga.edu

Timers On : Fri Oct 11 21:48:43 2024
Timers Off: Fri Oct 11 21:48:44 2024

Wall Time:        1.41 seconds

                                                       Time (seconds)
Module                                       User      System        Wall        Calls
Libint2ERI::Libint2ERI              :      0.000u      0.000s      0.001w      1 calls

--------------------------------------------------------------------------------------
Libint2ERI::Libint2ERI              :      0.000u      0.000s      0.001w      1 calls

**************************************************************************************

Host: vlogin2.ccqc.uga.edu

Timers On : Fri Oct 11 21:48:59 2024
Timers Off: Fri Oct 11 21:49:00 2024

Wall Time:        1.52 seconds

                                                       Time (seconds)
Module                                       User      System        Wall        Calls
Libint2ERI::Libint2ERI              :      0.000u      0.000s      0.001w      1 calls

--------------------------------------------------------------------------------------
Libint2ERI::Libint2ERI              :      0.000u      0.000s      0.001w      1 calls

**************************************************************************************

Host: vlogin2.ccqc.uga.edu

Timers On : Fri Oct 11 21:49:33 2024
Timers Off: Fri Oct 11 21:49:34 2024

Wall Time:        1.49 seconds

                                                       Time (seconds)
Module                                       User      System        Wall        Calls
Libint2ERI::Libint2ERI              :      0.017u      0.000s      0.001w      1 calls

--------------------------------------------------------------------------------------
Libint2ERI::Libint2ERI              :      0.017u      0.000s      0.001w      1 calls

**************************************************************************************

Host: vlogin2.ccqc.uga.edu

Timers On : Fri Oct 11 21:51:13 2024
Timers Off: Fri Oct 11 21:51:15 2024

Wall Time:        2.23 seconds

                                                       Time (seconds)
Module                                       User      System        Wall        Calls
Libint2ERI::Libint2ERI              :      0.000u      0.000s      0.001w      1 calls

--------------------------------------------------------------------------------------
Libint2ERI::Libint2ERI              :      0.000u      0.000s      0.001w      1 calls

**************************************************************************************

Host: vlogin2.ccqc.uga.edu

Timers On : Fri Oct 11 21:52:21 2024
Timers Off: Fri Oct 11 21:52:22 2024

Wall Time:        1.47 seconds

                                                       Time (seconds)
Module                                       User      System        Wall        Calls
Libint2ERI::Libint2ERI              :      0.000u      0.000s      0.001w      1 calls

--------------------------------------------------------------------------------------
Libint2ERI::Libint2ERI              :      0.000u      0.000s      0.001w      1 calls

**************************************************************************************

Host: vlogin2.ccqc.uga.edu

Timers On : Fri Oct 11 21:52:43 2024
Timers Off: Fri Oct 11 21:52:44 2024

Wall Time:        1.18 seconds

                                                       Time (seconds)
Module                                       User      System        Wall        Calls
Libint2ERI::Libint2ERI              :      0.000u      0.000s      0.001w      1 calls

--------------------------------------------------------------------------------------
Libint2ERI::Libint2ERI              :      0.000u      0.000s      0.001w      1 calls

**************************************************************************************

Host: vlogin2.ccqc.uga.edu

Timers On : Fri Oct 11 21:53:44 2024
Timers Off: Fri Oct 11 21:53:45 2024

Wall Time:        1.45 seconds

                                                       Time (seconds)
Module                                       User      System        Wall        Calls

--------------------------------------------------------------------------------------

**************************************************************************************

Host: vlogin2.ccqc.uga.edu

Timers On : Fri Oct 11 21:54:07 2024
Timers Off: Fri Oct 11 21:54:08 2024

Wall Time:        1.21 seconds

                                                       Time (seconds)
Module                                       User      System        Wall        Calls

--------------------------------------------------------------------------------------

**************************************************************************************

Host: vlogin2.ccqc.uga.edu

Timers On : Fri Oct 11 21:54:28 2024
Timers Off: Fri Oct 11 21:54:29 2024

Wall Time:        1.19 seconds

                                                       Time (seconds)
Module                                       User      System        Wall        Calls

--------------------------------------------------------------------------------------

**************************************************************************************

Host: vlogin2.ccqc.uga.edu

Timers On : Fri Oct 11 21:54:40 2024
Timers Off: Fri Oct 11 21:54:41 2024

Wall Time:        1.15 seconds

                                                       Time (seconds)
Module                                       User      System        Wall        Calls

--------------------------------------------------------------------------------------

**************************************************************************************

Host: vlogin2.ccqc.uga.edu

Timers On : Fri Oct 11 22:02:57 2024
Timers Off: Fri Oct 11 22:02:59 2024

Wall Time:        2.21 seconds

                                                       Time (seconds)
Module                                       User      System        Wall        Calls

--------------------------------------------------------------------------------------

**************************************************************************************

Host: vlogin2.ccqc.uga.edu

Timers On : Fri Oct 11 22:04:43 2024
Timers Off: Fri Oct 11 22:04:44 2024

Wall Time:        1.45 seconds

                                                       Time (seconds)
Module                                       User      System        Wall        Calls

--------------------------------------------------------------------------------------

**************************************************************************************

Host: vlogin2.ccqc.uga.edu

Timers On : Fri Oct 11 22:05:13 2024
Timers Off: Fri Oct 11 22:05:14 2024

Wall Time:        1.25 seconds

                                                       Time (seconds)
Module                                       User      System        Wall        Calls

--------------------------------------------------------------------------------------

**************************************************************************************

Host: vlogin2.ccqc.uga.edu

Timers On : Fri Oct 11 22:07:59 2024
Timers Off: Fri Oct 11 22:08:01 2024

Wall Time:        2.05 seconds

                                                       Time (seconds)
Module                                       User      System        Wall        Calls

--------------------------------------------------------------------------------------

**************************************************************************************

Host: vlogin2.ccqc.uga.edu

Timers On : Fri Oct 11 22:08:58 2024
Timers Off: Fri Oct 11 22:09:00 2024

Wall Time:        1.20 seconds

                                                       Time (seconds)
Module                                       User      System        Wall        Calls

--------------------------------------------------------------------------------------

**************************************************************************************

Host: vlogin2.ccqc.uga.edu

Timers On : Fri Oct 11 22:09:17 2024
Timers Off: Fri Oct 11 22:09:18 2024

Wall Time:        1.40 seconds

                                                       Time (seconds)
Module                                       User      System        Wall        Calls

--------------------------------------------------------------------------------------

**************************************************************************************

Host: vlogin2.ccqc.uga.edu

Timers On : Fri Oct 11 22:09:39 2024
Timers Off: Fri Oct 11 22:09:41 2024

Wall Time:        1.22 seconds

                                                       Time (seconds)
Module                                       User      System        Wall        Calls

--------------------------------------------------------------------------------------

**************************************************************************************

Host: vlogin2.ccqc.uga.edu

Timers On : Fri Oct 11 22:10:31 2024
Timers Off: Fri Oct 11 22:10:33 2024

Wall Time:        1.45 seconds

                                                       Time (seconds)
Module                                       User      System        Wall        Calls

--------------------------------------------------------------------------------------

**************************************************************************************

Host: vlogin2.ccqc.uga.edu

Timers On : Fri Oct 11 22:11:41 2024
Timers Off: Fri Oct 11 22:11:42 2024

Wall Time:        1.42 seconds

                                                       Time (seconds)
Module                                       User      System        Wall        Calls

--------------------------------------------------------------------------------------

**************************************************************************************

Host: vlogin2.ccqc.uga.edu

Timers On : Fri Oct 11 22:14:30 2024
Timers Off: Fri Oct 11 22:14:32 2024

Wall Time:        2.16 seconds

                                                       Time (seconds)
Module                                       User      System        Wall        Calls

--------------------------------------------------------------------------------------

**************************************************************************************

Host: vlogin2.ccqc.uga.edu

Timers On : Fri Oct 11 22:15:45 2024
Timers Off: Fri Oct 11 22:15:47 2024

Wall Time:        1.48 seconds

                                                       Time (seconds)
Module                                       User      System        Wall        Calls

--------------------------------------------------------------------------------------

**************************************************************************************

Host: vlogin2.ccqc.uga.edu

Timers On : Fri Oct 11 22:19:55 2024
Timers Off: Fri Oct 11 22:19:57 2024

Wall Time:        2.11 seconds

                                                       Time (seconds)
Module                                       User      System        Wall        Calls

--------------------------------------------------------------------------------------

**************************************************************************************

Host: vlogin2.ccqc.uga.edu

Timers On : Fri Oct 11 22:20:15 2024
Timers Off: Fri Oct 11 22:20:16 2024

Wall Time:        1.18 seconds

                                                       Time (seconds)
Module                                       User      System        Wall        Calls

--------------------------------------------------------------------------------------

**************************************************************************************

Host: vlogin2.ccqc.uga.edu

Timers On : Fri Oct 11 22:21:15 2024
Timers Off: Fri Oct 11 22:21:17 2024

Wall Time:        1.49 seconds

                                                       Time (seconds)
Module                                       User      System        Wall        Calls

--------------------------------------------------------------------------------------

**************************************************************************************

Host: vlogin2.ccqc.uga.edu

Timers On : Fri Oct 11 22:21:35 2024
Timers Off: Fri Oct 11 22:21:36 2024

Wall Time:        1.18 seconds

                                                       Time (seconds)
Module                                       User      System        Wall        Calls

--------------------------------------------------------------------------------------

**************************************************************************************

Host: vlogin2.ccqc.uga.edu

Timers On : Fri Oct 11 22:21:56 2024
Timers Off: Fri Oct 11 22:21:57 2024

Wall Time:        1.20 seconds

                                                       Time (seconds)
Module                                       User      System        Wall        Calls

--------------------------------------------------------------------------------------

**************************************************************************************

Host: vlogin2.ccqc.uga.edu

Timers On : Fri Oct 11 22:26:03 2024
Timers Off: Fri Oct 11 22:26:06 2024

Wall Time:        2.18 seconds

                                                       Time (seconds)
Module                                       User      System        Wall        Calls

--------------------------------------------------------------------------------------

**************************************************************************************

Host: vlogin2.ccqc.uga.edu

Timers On : Fri Oct 11 22:28:48 2024
Timers Off: Fri Oct 11 22:28:50 2024

Wall Time:        2.08 seconds

                                                       Time (seconds)
Module                                       User      System        Wall        Calls

--------------------------------------------------------------------------------------

**************************************************************************************

Host: vlogin2.ccqc.uga.edu

Timers On : Fri Oct 11 22:29:08 2024
Timers Off: Fri Oct 11 22:29:10 2024

Wall Time:        1.22 seconds

                                                       Time (seconds)
Module                                       User      System        Wall        Calls

--------------------------------------------------------------------------------------

**************************************************************************************

Host: vlogin2.ccqc.uga.edu

Timers On : Fri Oct 11 22:29:54 2024
Timers Off: Fri Oct 11 22:29:56 2024

Wall Time:        1.46 seconds

                                                       Time (seconds)
Module                                       User      System        Wall        Calls

--------------------------------------------------------------------------------------

**************************************************************************************

Host: vlogin2.ccqc.uga.edu

Timers On : Fri Oct 11 22:32:14 2024
Timers Off: Fri Oct 11 22:32:16 2024

Wall Time:        2.05 seconds

                                                       Time (seconds)
Module                                       User      System        Wall        Calls

--------------------------------------------------------------------------------------

**************************************************************************************

Host: vlogin2.ccqc.uga.edu

Timers On : Fri Oct 11 22:32:46 2024
Timers Off: Fri Oct 11 22:32:47 2024

Wall Time:        1.26 seconds

                                                       Time (seconds)
Module                                       User      System        Wall        Calls

--------------------------------------------------------------------------------------

**************************************************************************************

Host: vlogin2.ccqc.uga.edu

Timers On : Fri Oct 11 22:33:57 2024
Timers Off: Fri Oct 11 22:33:59 2024

Wall Time:        2.14 seconds

                                                       Time (seconds)
Module                                       User      System        Wall        Calls

--------------------------------------------------------------------------------------

**************************************************************************************

Host: vlogin2.ccqc.uga.edu

Timers On : Fri Oct 11 22:36:16 2024
Timers Off: Fri Oct 11 22:36:18 2024

Wall Time:        2.20 seconds

                                                       Time (seconds)
Module                                       User      System        Wall        Calls

--------------------------------------------------------------------------------------

**************************************************************************************

Host: vlogin2.ccqc.uga.edu

Timers On : Fri Oct 11 22:37:37 2024
Timers Off: Fri Oct 11 22:37:38 2024

Wall Time:        1.44 seconds

                                                       Time (seconds)
Module                                       User      System        Wall        Calls

--------------------------------------------------------------------------------------

**************************************************************************************

Host: vlogin2.ccqc.uga.edu

Timers On : Fri Oct 11 22:38:46 2024
Timers Off: Fri Oct 11 22:38:48 2024

Wall Time:        1.45 seconds

                                                       Time (seconds)
Module                                       User      System        Wall        Calls

--------------------------------------------------------------------------------------

**************************************************************************************

Host: vlogin2.ccqc.uga.edu

Timers On : Fri Oct 11 22:39:26 2024
Timers Off: Fri Oct 11 22:39:27 2024

Wall Time:        1.21 seconds

                                                       Time (seconds)
Module                                       User      System        Wall        Calls

--------------------------------------------------------------------------------------

**************************************************************************************

Host: vlogin2.ccqc.uga.edu

Timers On : Fri Oct 11 22:40:06 2024
Timers Off: Fri Oct 11 22:40:07 2024

Wall Time:        1.45 seconds

                                                       Time (seconds)
Module                                       User      System        Wall        Calls

--------------------------------------------------------------------------------------

**************************************************************************************

Host: vlogin2.ccqc.uga.edu

Timers On : Fri Oct 11 22:40:51 2024
Timers Off: Fri Oct 11 22:40:52 2024

Wall Time:        1.20 seconds

                                                       Time (seconds)
Module                                       User      System        Wall        Calls

--------------------------------------------------------------------------------------

**************************************************************************************

Host: vlogin2.ccqc.uga.edu

Timers On : Fri Oct 11 22:41:03 2024
Timers Off: Fri Oct 11 22:41:04 2024

Wall Time:        1.19 seconds

                                                       Time (seconds)
Module                                       User      System        Wall        Calls

--------------------------------------------------------------------------------------

**************************************************************************************

Host: vlogin2.ccqc.uga.edu

Timers On : Fri Oct 11 22:42:18 2024
Timers Off: Fri Oct 11 22:42:19 2024

Wall Time:        1.42 seconds

                                                       Time (seconds)
Module                                       User      System        Wall        Calls

--------------------------------------------------------------------------------------

**************************************************************************************

Host: vlogin2.ccqc.uga.edu

Timers On : Fri Oct 11 22:43:08 2024
Timers Off: Fri Oct 11 22:43:10 2024

Wall Time:        1.20 seconds

                                                       Time (seconds)
Module                                       User      System        Wall        Calls

--------------------------------------------------------------------------------------

**************************************************************************************

Host: vlogin2.ccqc.uga.edu

Timers On : Fri Oct 11 22:43:33 2024
Timers Off: Fri Oct 11 22:43:34 2024

Wall Time:        1.38 seconds

                                                       Time (seconds)
Module                                       User      System        Wall        Calls

--------------------------------------------------------------------------------------

**************************************************************************************

Host: vlogin2.ccqc.uga.edu

Timers On : Fri Oct 11 22:43:58 2024
Timers Off: Fri Oct 11 22:44:00 2024

Wall Time:        1.21 seconds

                                                       Time (seconds)
Module                                       User      System        Wall        Calls

--------------------------------------------------------------------------------------

**************************************************************************************

Host: vlogin2.ccqc.uga.edu

Timers On : Fri Oct 11 22:44:22 2024
Timers Off: Fri Oct 11 22:44:23 2024

Wall Time:        1.17 seconds

                                                       Time (seconds)
Module                                       User      System        Wall        Calls

--------------------------------------------------------------------------------------

**************************************************************************************

Host: vlogin2.ccqc.uga.edu

Timers On : Fri Oct 11 22:46:39 2024
Timers Off: Fri Oct 11 22:46:41 2024

Wall Time:        2.20 seconds

                                                       Time (seconds)
Module                                       User      System        Wall        Calls

--------------------------------------------------------------------------------------

**************************************************************************************

Host: vlogin2.ccqc.uga.edu

Timers On : Fri Oct 11 22:47:41 2024
Timers Off: Fri Oct 11 22:47:42 2024

Wall Time:        1.68 seconds

                                                       Time (seconds)
Module                                       User      System        Wall        Calls

--------------------------------------------------------------------------------------

**************************************************************************************

Host: vlogin2.ccqc.uga.edu

Timers On : Fri Oct 11 22:48:32 2024
Timers Off: Fri Oct 11 22:48:33 2024

Wall Time:        1.20 seconds

                                                       Time (seconds)
Module                                       User      System        Wall        Calls

--------------------------------------------------------------------------------------

**************************************************************************************

Host: vlogin2.ccqc.uga.edu

Timers On : Fri Oct 11 22:50:03 2024
Timers Off: Fri Oct 11 22:50:05 2024

Wall Time:        2.21 seconds

                                                       Time (seconds)
Module                                       User      System        Wall        Calls

--------------------------------------------------------------------------------------

**************************************************************************************

Host: vlogin2.ccqc.uga.edu

Timers On : Fri Oct 11 22:50:43 2024
Timers Off: Fri Oct 11 22:50:44 2024

Wall Time:        1.21 seconds

                                                       Time (seconds)
Module                                       User      System        Wall        Calls

--------------------------------------------------------------------------------------

**************************************************************************************

Host: vlogin2.ccqc.uga.edu

Timers On : Fri Oct 11 22:53:38 2024
Timers Off: Fri Oct 11 22:53:40 2024

Wall Time:        2.06 seconds

                                                       Time (seconds)
Module                                       User      System        Wall        Calls

--------------------------------------------------------------------------------------

**************************************************************************************

Host: vlogin2.ccqc.uga.edu

Timers On : Fri Oct 11 22:55:20 2024
Timers Off: Fri Oct 11 22:55:22 2024

Wall Time:        2.18 seconds

                                                       Time (seconds)
Module                                       User      System        Wall        Calls

--------------------------------------------------------------------------------------

**************************************************************************************

Host: vlogin2.ccqc.uga.edu

Timers On : Fri Oct 11 22:55:43 2024
Timers Off: Fri Oct 11 22:55:44 2024

Wall Time:        1.21 seconds

                                                       Time (seconds)
Module                                       User      System        Wall        Calls

--------------------------------------------------------------------------------------

**************************************************************************************

Host: vlogin2.ccqc.uga.edu

Timers On : Fri Oct 11 22:56:28 2024
Timers Off: Fri Oct 11 22:56:29 2024

Wall Time:        1.51 seconds

                                                       Time (seconds)
Module                                       User      System        Wall        Calls

--------------------------------------------------------------------------------------

**************************************************************************************

Host: vlogin2.ccqc.uga.edu

Timers On : Fri Oct 11 22:56:49 2024
Timers Off: Fri Oct 11 22:56:50 2024

Wall Time:        1.19 seconds

                                                       Time (seconds)
Module                                       User      System        Wall        Calls

--------------------------------------------------------------------------------------

**************************************************************************************

Host: vlogin2.ccqc.uga.edu

Timers On : Fri Oct 11 22:57:04 2024
Timers Off: Fri Oct 11 22:57:05 2024

Wall Time:        1.21 seconds

                                                       Time (seconds)
Module                                       User      System        Wall        Calls

--------------------------------------------------------------------------------------

**************************************************************************************

Host: vlogin2.ccqc.uga.edu

Timers On : Fri Oct 11 22:57:19 2024
Timers Off: Fri Oct 11 22:57:20 2024

Wall Time:        1.19 seconds

                                                       Time (seconds)
Module                                       User      System        Wall        Calls

--------------------------------------------------------------------------------------

**************************************************************************************

Host: vlogin2.ccqc.uga.edu

Timers On : Fri Oct 11 22:58:29 2024
Timers Off: Fri Oct 11 22:58:31 2024

Wall Time:        1.54 seconds

                                                       Time (seconds)
Module                                       User      System        Wall        Calls

--------------------------------------------------------------------------------------

**************************************************************************************

Host: vlogin2.ccqc.uga.edu

Timers On : Sat Oct 12 13:36:44 2024
Timers Off: Sat Oct 12 13:36:46 2024

Wall Time:        1.57 seconds

                                                       Time (seconds)
Module                                       User      System        Wall        Calls

--------------------------------------------------------------------------------------

**************************************************************************************

Host: vlogin2.ccqc.uga.edu

Timers On : Sat Oct 12 13:37:27 2024
Timers Off: Sat Oct 12 13:37:28 2024

Wall Time:        1.21 seconds

                                                       Time (seconds)
Module                                       User      System        Wall        Calls

--------------------------------------------------------------------------------------

**************************************************************************************

Host: vlogin2.ccqc.uga.edu

Timers On : Sat Oct 12 13:37:40 2024
Timers Off: Sat Oct 12 13:37:42 2024

Wall Time:        1.40 seconds

                                                       Time (seconds)
Module                                       User      System        Wall        Calls
Libint2ERI::Libint2ERI              :      0.000u      0.000s      0.001w      1 calls

--------------------------------------------------------------------------------------
Libint2ERI::Libint2ERI              :      0.000u      0.000s      0.001w      1 calls

**************************************************************************************

Host: vlogin2.ccqc.uga.edu

Timers On : Sat Oct 12 13:38:22 2024
Timers Off: Sat Oct 12 13:38:23 2024

Wall Time:        1.30 seconds

                                                       Time (seconds)
Module                                       User      System        Wall        Calls
Libint2ERI::Libint2ERI              :      0.000u      0.000s      0.001w      1 calls

--------------------------------------------------------------------------------------
Libint2ERI::Libint2ERI              :      0.000u      0.000s      0.001w      1 calls

**************************************************************************************

Host: vlogin2.ccqc.uga.edu

Timers On : Sat Oct 12 13:38:43 2024
Timers Off: Sat Oct 12 13:39:12 2024

Wall Time:       28.89 seconds

                                                       Time (seconds)
Module                                       User      System        Wall        Calls
Libint2ERI::Libint2ERI              :      0.017u      0.000s      0.002w      1 calls

--------------------------------------------------------------------------------------
Libint2ERI::Libint2ERI              :      0.017u      0.000s      0.002w      1 calls

**************************************************************************************

Host: vlogin2.ccqc.uga.edu

Timers On : Sat Oct 12 13:39:27 2024
Timers Off: Sat Oct 12 13:39:55 2024

Wall Time:       27.45 seconds

                                                       Time (seconds)
Module                                       User      System        Wall        Calls
Libint2ERI::Libint2ERI              :      0.000u      0.000s      0.003w      1 calls

--------------------------------------------------------------------------------------
Libint2ERI::Libint2ERI              :      0.000u      0.000s      0.003w      1 calls

**************************************************************************************

Host: vlogin2.ccqc.uga.edu

Timers On : Sat Oct 12 13:40:21 2024
Timers Off: Sat Oct 12 13:40:50 2024

Wall Time:       28.18 seconds

                                                       Time (seconds)
Module                                       User      System        Wall        Calls
Libint2ERI::Libint2ERI              :      0.017u      0.000s      0.002w      1 calls

--------------------------------------------------------------------------------------
Libint2ERI::Libint2ERI              :      0.017u      0.000s      0.002w      1 calls

**************************************************************************************

Host: vlogin2.ccqc.uga.edu

Timers On : Sat Oct 12 21:01:37 2024
Timers Off: Sat Oct 12 21:02:11 2024

Wall Time:       34.09 seconds

                                                       Time (seconds)
Module                                       User      System        Wall        Calls
Libint2ERI::Libint2ERI              :      0.000u      0.000s      0.002w      1 calls

--------------------------------------------------------------------------------------
Libint2ERI::Libint2ERI              :      0.000u      0.000s      0.002w      1 calls

**************************************************************************************

Host: vlogin2.ccqc.uga.edu

Timers On : Sat Oct 12 21:01:33 2024
Timers Off: Sat Oct 12 21:02:12 2024

Wall Time:       38.78 seconds

                                                       Time (seconds)
Module                                       User      System        Wall        Calls
Libint2ERI::Libint2ERI              :      0.000u      0.000s      0.002w      1 calls

--------------------------------------------------------------------------------------
Libint2ERI::Libint2ERI              :      0.000u      0.000s      0.002w      1 calls

**************************************************************************************
