
Host: headnode

Timers On : Sun Nov  9 12:59:39 2025
Timers Off: Sun Nov  9 12:59:45 2025

Wall Time:        5.63 seconds

                                                       Time (seconds)
Module                                       User      System        Wall        Calls

--------------------------------------------------------------------------------------

**************************************************************************************

Host: headnode

Timers On : Sun Nov  9 13:00:12 2025
Timers Off: Sun Nov  9 13:00:13 2025

Wall Time:        1.02 seconds

                                                       Time (seconds)
Module                                       User      System        Wall        Calls

--------------------------------------------------------------------------------------

**************************************************************************************

Host: headnode

Timers On : Sun Nov  9 13:00:29 2025
Timers Off: Sun Nov  9 13:00:30 2025

Wall Time:        0.83 seconds

                                                       Time (seconds)
Module                                       User      System        Wall        Calls
Libint2ERI::Libint2ERI              :      0.000u      0.000s      0.000w      1 calls

--------------------------------------------------------------------------------------
Libint2ERI::Libint2ERI              :      0.000u      0.000s      0.000w      1 calls

**************************************************************************************

Host: headnode

Timers On : Sun Nov  9 13:00:57 2025
Timers Off: Sun Nov  9 13:00:58 2025

Wall Time:        0.90 seconds

                                                       Time (seconds)
Module                                       User      System        Wall        Calls
Libint2ERI::Libint2ERI              :      0.000u      0.000s      0.000w      3 calls

--------------------------------------------------------------------------------------
Libint2ERI::Libint2ERI              :      0.000u      0.000s      0.000w      3 calls

**************************************************************************************

Host: headnode

Timers On : Sun Nov  9 13:01:49 2025
Timers Off: Sun Nov  9 13:01:51 2025

Wall Time:        2.25 seconds

                                                       Time (seconds)
Module                                       User      System        Wall        Calls
Libint2ERI::Libint2ERI              :      0.000u      0.000s      0.018w      3 calls

--------------------------------------------------------------------------------------
Libint2ERI::Libint2ERI              :      0.000u      0.000s      0.018w      3 calls

**************************************************************************************

Host: headnode

Timers On : Sun Nov  9 13:02:25 2025
Timers Off: Sun Nov  9 13:02:25 2025

Wall Time:        0.82 seconds

                                                       Time (seconds)
Module                                       User      System        Wall        Calls

--------------------------------------------------------------------------------------

**************************************************************************************

Host: headnode

Timers On : Sun Nov  9 13:07:18 2025
Timers Off: Sun Nov  9 13:07:19 2025

Wall Time:        0.95 seconds

                                                       Time (seconds)
Module                                       User      System        Wall        Calls
Libint2ERI::Libint2ERI              :      0.000u      0.000s      0.009w      2 calls

--------------------------------------------------------------------------------------
Libint2ERI::Libint2ERI              :      0.000u      0.000s      0.009w      2 calls

**************************************************************************************

Host: headnode

Timers On : Sun Nov  9 13:12:09 2025
Timers Off: Sun Nov  9 13:12:11 2025

Wall Time:        2.23 seconds

                                                       Time (seconds)
Module                                       User      System        Wall        Calls
Libint2ERI::Libint2ERI              :      0.017u      0.017s      0.017w      3 calls

--------------------------------------------------------------------------------------
Libint2ERI::Libint2ERI              :      0.017u      0.017s      0.017w      3 calls

**************************************************************************************

Host: headnode

Timers On : Sun Nov  9 13:16:54 2025
Timers Off: Sun Nov  9 13:16:56 2025

Wall Time:        1.90 seconds

                                                       Time (seconds)
Module                                       User      System        Wall        Calls
Libint2ERI::Libint2ERI              :      0.017u      0.000s      0.018w      3 calls

--------------------------------------------------------------------------------------
Libint2ERI::Libint2ERI              :      0.017u      0.000s      0.018w      3 calls

**************************************************************************************

Host: headnode

Timers On : Sun Nov  9 13:17:30 2025
Timers Off: Sun Nov  9 13:17:33 2025

Wall Time:        2.19 seconds

                                                       Time (seconds)
Module                                       User      System        Wall        Calls
Libint2ERI::Libint2ERI              :      0.033u      0.000s      0.017w      3 calls

--------------------------------------------------------------------------------------
Libint2ERI::Libint2ERI              :      0.033u      0.000s      0.017w      3 calls

**************************************************************************************

Host: headnode

Timers On : Sun Nov  9 14:07:24 2025
Timers Off: Sun Nov  9 14:07:25 2025

Wall Time:        0.74 seconds

                                                       Time (seconds)
Module                                       User      System        Wall        Calls

--------------------------------------------------------------------------------------

**************************************************************************************

Host: headnode

Timers On : Sun Nov  9 14:08:14 2025
Timers Off: Sun Nov  9 14:08:16 2025

Wall Time:        2.36 seconds

                                                       Time (seconds)
Module                                       User      System        Wall        Calls
Libint2ERI::Libint2ERI              :      0.017u      0.033s      0.018w      3 calls

--------------------------------------------------------------------------------------
Libint2ERI::Libint2ERI              :      0.017u      0.033s      0.018w      3 calls

**************************************************************************************

Host: headnode

Timers On : Sun Nov  9 14:17:20 2025
Timers Off: Sun Nov  9 14:17:22 2025

Wall Time:        2.26 seconds

                                                       Time (seconds)
Module                                       User      System        Wall        Calls
Libint2ERI::Libint2ERI              :      0.017u      0.000s      0.018w      3 calls

--------------------------------------------------------------------------------------
Libint2ERI::Libint2ERI              :      0.017u      0.000s      0.018w      3 calls

**************************************************************************************

Host: headnode

Timers On : Sun Nov  9 14:21:25 2025
Timers Off: Sun Nov  9 14:21:28 2025

Wall Time:        2.28 seconds

                                                       Time (seconds)
Module                                       User      System        Wall        Calls
Libint2ERI::Libint2ERI              :      0.000u      0.017s      0.017w      3 calls

--------------------------------------------------------------------------------------
Libint2ERI::Libint2ERI              :      0.000u      0.017s      0.017w      3 calls

**************************************************************************************

Host: headnode

Timers On : Sun Nov  9 14:21:51 2025
Timers Off: Sun Nov  9 14:21:54 2025

Wall Time:        2.21 seconds

                                                       Time (seconds)
Module                                       User      System        Wall        Calls
Libint2ERI::Libint2ERI              :      0.033u      0.000s      0.018w      3 calls

--------------------------------------------------------------------------------------
Libint2ERI::Libint2ERI              :      0.033u      0.000s      0.018w      3 calls

**************************************************************************************

Host: headnode

Timers On : Sun Nov  9 18:10:31 2025
Timers Off: Sun Nov  9 18:10:32 2025

Wall Time:        0.91 seconds

                                                       Time (seconds)
Module                                       User      System        Wall        Calls
Libint2ERI::Libint2ERI              :      0.017u      0.017s      0.009w      2 calls

--------------------------------------------------------------------------------------
Libint2ERI::Libint2ERI              :      0.017u      0.017s      0.009w      2 calls

**************************************************************************************

Host: headnode

Timers On : Sun Nov  9 18:17:54 2025
Timers Off: Sun Nov  9 18:17:55 2025

Wall Time:        0.66 seconds

                                                       Time (seconds)
Module                                       User      System        Wall        Calls

--------------------------------------------------------------------------------------

**************************************************************************************

Host: headnode

Timers On : Sun Nov  9 18:18:08 2025
Timers Off: Sun Nov  9 18:18:09 2025

Wall Time:        0.88 seconds

                                                       Time (seconds)
Module                                       User      System        Wall        Calls
Libint2ERI::Libint2ERI              :      0.000u      0.000s      0.009w      2 calls

--------------------------------------------------------------------------------------
Libint2ERI::Libint2ERI              :      0.000u      0.000s      0.009w      2 calls

**************************************************************************************

Host: headnode

Timers On : Sun Nov  9 18:18:49 2025
Timers Off: Sun Nov  9 18:18:49 2025

Wall Time:        0.65 seconds

                                                       Time (seconds)
Module                                       User      System        Wall        Calls

--------------------------------------------------------------------------------------

**************************************************************************************

Host: headnode

Timers On : Sun Nov  9 18:19:09 2025
Timers Off: Sun Nov  9 18:19:09 2025

Wall Time:        0.73 seconds

                                                       Time (seconds)
Module                                       User      System        Wall        Calls

--------------------------------------------------------------------------------------

**************************************************************************************

Host: headnode

Timers On : Sun Nov  9 18:19:34 2025
Timers Off: Sun Nov  9 18:19:34 2025

Wall Time:        0.86 seconds

                                                       Time (seconds)
Module                                       User      System        Wall        Calls
Libint2ERI::Libint2ERI              :      0.000u      0.017s      0.009w      2 calls

--------------------------------------------------------------------------------------
Libint2ERI::Libint2ERI              :      0.000u      0.017s      0.009w      2 calls

**************************************************************************************

Host: headnode

Timers On : Sun Nov  9 18:21:13 2025
Timers Off: Sun Nov  9 18:21:14 2025

Wall Time:        0.93 seconds

                                                       Time (seconds)
Module                                       User      System        Wall        Calls
Libint2ERI::Libint2ERI              :      0.017u      0.017s      0.009w      2 calls

--------------------------------------------------------------------------------------
Libint2ERI::Libint2ERI              :      0.017u      0.017s      0.009w      2 calls

**************************************************************************************

Host: headnode

Timers On : Sun Nov  9 18:22:48 2025
Timers Off: Sun Nov  9 18:22:49 2025

Wall Time:        0.89 seconds

                                                       Time (seconds)
Module                                       User      System        Wall        Calls
Libint2ERI::Libint2ERI              :      0.017u      0.000s      0.009w      2 calls

--------------------------------------------------------------------------------------
Libint2ERI::Libint2ERI              :      0.017u      0.000s      0.009w      2 calls

**************************************************************************************

Host: headnode

Timers On : Sun Nov  9 18:23:13 2025
Timers Off: Sun Nov  9 18:23:14 2025

Wall Time:        0.86 seconds

                                                       Time (seconds)
Module                                       User      System        Wall        Calls
Libint2ERI::Libint2ERI              :      0.000u      0.000s      0.009w      2 calls

--------------------------------------------------------------------------------------
Libint2ERI::Libint2ERI              :      0.000u      0.000s      0.009w      2 calls

**************************************************************************************

Host: headnode

Timers On : Sun Nov  9 18:23:30 2025
Timers Off: Sun Nov  9 18:23:31 2025

Wall Time:        0.85 seconds

                                                       Time (seconds)
Module                                       User      System        Wall        Calls
Libint2ERI::Libint2ERI              :      0.017u      0.000s      0.009w      2 calls

--------------------------------------------------------------------------------------
Libint2ERI::Libint2ERI              :      0.017u      0.000s      0.009w      2 calls

**************************************************************************************

Host: headnode

Timers On : Sun Nov  9 18:25:50 2025
Timers Off: Sun Nov  9 18:25:51 2025

Wall Time:        0.88 seconds

                                                       Time (seconds)
Module                                       User      System        Wall        Calls
Libint2ERI::Libint2ERI              :      0.017u      0.017s      0.008w      2 calls

--------------------------------------------------------------------------------------
Libint2ERI::Libint2ERI              :      0.017u      0.017s      0.008w      2 calls

**************************************************************************************

Host: headnode

Timers On : Sun Nov  9 18:26:37 2025
Timers Off: Sun Nov  9 18:26:38 2025

Wall Time:        0.92 seconds

                                                       Time (seconds)
Module                                       User      System        Wall        Calls
Libint2ERI::Libint2ERI              :      0.000u      0.017s      0.008w      2 calls

--------------------------------------------------------------------------------------
Libint2ERI::Libint2ERI              :      0.000u      0.017s      0.008w      2 calls

**************************************************************************************

Host: headnode

Timers On : Sun Nov  9 18:47:47 2025
Timers Off: Sun Nov  9 18:47:48 2025

Wall Time:        0.98 seconds

                                                       Time (seconds)
Module                                       User      System        Wall        Calls
Libint2ERI::Libint2ERI              :      0.017u      0.017s      0.009w      2 calls

--------------------------------------------------------------------------------------
Libint2ERI::Libint2ERI              :      0.017u      0.017s      0.009w      2 calls

**************************************************************************************

Host: headnode

Timers On : Sun Nov  9 19:05:17 2025
Timers Off: Sun Nov  9 19:05:17 2025

Wall Time:        0.87 seconds

                                                       Time (seconds)
Module                                       User      System        Wall        Calls

--------------------------------------------------------------------------------------

**************************************************************************************

Host: headnode

Timers On : Sun Nov  9 19:36:12 2025
Timers Off: Sun Nov  9 19:36:13 2025

Wall Time:        0.87 seconds

                                                       Time (seconds)
Module                                       User      System        Wall        Calls

--------------------------------------------------------------------------------------

**************************************************************************************

Host: headnode

Timers On : Sun Nov  9 19:37:06 2025
Timers Off: Sun Nov  9 19:37:07 2025

Wall Time:        0.76 seconds

                                                       Time (seconds)
Module                                       User      System        Wall        Calls

--------------------------------------------------------------------------------------

**************************************************************************************

Host: headnode

Timers On : Sun Nov  9 19:38:29 2025
Timers Off: Sun Nov  9 19:38:30 2025

Wall Time:        0.78 seconds

                                                       Time (seconds)
Module                                       User      System        Wall        Calls

--------------------------------------------------------------------------------------

**************************************************************************************

Host: headnode

Timers On : Wed Jul  8 21:48:35 2026
Timers Off: Wed Jul  8 21:48:37 2026

Wall Time:        2.24 seconds

                                                       Time (seconds)
Module                                       User      System        Wall        Calls
Libint2ERI::Libint2ERI              :      0.033u      0.017s      0.016w      3 calls

--------------------------------------------------------------------------------------
Libint2ERI::Libint2ERI              :      0.033u      0.017s      0.016w      3 calls

**************************************************************************************

Host: headnode

Timers On : Wed Jul  8 21:49:04 2026
Timers Off: Wed Jul  8 21:49:25 2026

Wall Time:       20.64 seconds

                                                       Time (seconds)
Module                                       User      System        Wall        Calls
Libint2ERI::Libint2ERI              :      0.000u      0.000s      0.002w      2 calls

--------------------------------------------------------------------------------------
Libint2ERI::Libint2ERI              :      0.000u      0.000s      0.002w      2 calls

**************************************************************************************

Host: headnode

Timers On : Wed Jul  8 21:50:41 2026
Timers Off: Wed Jul  8 21:51:00 2026

Wall Time:       19.06 seconds

                                                       Time (seconds)
Module                                       User      System        Wall        Calls
Libint2ERI::Libint2ERI              :      0.000u      0.000s      0.001w      2 calls

--------------------------------------------------------------------------------------
Libint2ERI::Libint2ERI              :      0.000u      0.000s      0.001w      2 calls

**************************************************************************************

Host: headnode

Timers On : Wed Jul  8 21:51:28 2026
Timers Off: Wed Jul  8 21:51:30 2026

Wall Time:        1.44 seconds

                                                       Time (seconds)
Module                                       User      System        Wall        Calls
Libint2ERI::Libint2ERI              :      0.000u      0.000s      0.001w      3 calls

--------------------------------------------------------------------------------------
Libint2ERI::Libint2ERI              :      0.000u      0.000s      0.001w      3 calls

**************************************************************************************

Host: headnode

Timers On : Wed Jul  8 21:52:46 2026
Timers Off: Wed Jul  8 21:52:47 2026

Wall Time:        1.44 seconds

                                                       Time (seconds)
Module                                       User      System        Wall        Calls
Libint2ERI::Libint2ERI              :      0.000u      0.000s      0.001w      3 calls

--------------------------------------------------------------------------------------
Libint2ERI::Libint2ERI              :      0.000u      0.000s      0.001w      3 calls

**************************************************************************************

Host: headnode

Timers On : Wed Jul  8 22:01:41 2026
Timers Off: Wed Jul  8 22:01:43 2026

Wall Time:        1.45 seconds

                                                       Time (seconds)
Module                                       User      System        Wall        Calls
Libint2ERI::Libint2ERI              :      0.000u      0.000s      0.001w      3 calls

--------------------------------------------------------------------------------------
Libint2ERI::Libint2ERI              :      0.000u      0.000s      0.001w      3 calls

**************************************************************************************

Host: headnode

Timers On : Wed Jul  8 22:15:59 2026
Timers Off: Wed Jul  8 22:16:01 2026

Wall Time:        1.44 seconds

                                                       Time (seconds)
Module                                       User      System        Wall        Calls
Libint2ERI::Libint2ERI              :      0.000u      0.000s      0.001w      3 calls

--------------------------------------------------------------------------------------
Libint2ERI::Libint2ERI              :      0.000u      0.000s      0.001w      3 calls

**************************************************************************************

Host: headnode

Timers On : Thu Jul  9 06:37:24 2026
Timers Off: Thu Jul  9 06:37:25 2026

Wall Time:        1.47 seconds

                                                       Time (seconds)
Module                                       User      System        Wall        Calls
Libint2ERI::Libint2ERI              :      0.000u      0.000s      0.000w      3 calls

--------------------------------------------------------------------------------------
Libint2ERI::Libint2ERI              :      0.000u      0.000s      0.000w      3 calls

**************************************************************************************

Host: headnode

Timers On : Thu Jul  9 06:39:52 2026
Timers Off: Thu Jul  9 06:39:54 2026

Wall Time:        1.45 seconds

                                                       Time (seconds)
Module                                       User      System        Wall        Calls
Libint2ERI::Libint2ERI              :      0.017u      0.000s      0.001w      3 calls

--------------------------------------------------------------------------------------
Libint2ERI::Libint2ERI              :      0.017u      0.000s      0.001w      3 calls

**************************************************************************************

Host: headnode

Timers On : Thu Jul  9 06:40:11 2026
Timers Off: Thu Jul  9 06:40:12 2026

Wall Time:        1.44 seconds

                                                       Time (seconds)
Module                                       User      System        Wall        Calls
Libint2ERI::Libint2ERI              :      0.000u      0.000s      0.001w      3 calls

--------------------------------------------------------------------------------------
Libint2ERI::Libint2ERI              :      0.000u      0.000s      0.001w      3 calls

**************************************************************************************

Host: headnode

Timers On : Thu Jul  9 07:43:02 2026
Timers Off: Thu Jul  9 07:43:09 2026

Wall Time:        7.13 seconds

                                                       Time (seconds)
Module                                       User      System        Wall        Calls
Libint2ERI::Libint2ERI              :      0.000u      0.017s      0.017w      3 calls

--------------------------------------------------------------------------------------
Libint2ERI::Libint2ERI              :      0.000u      0.017s      0.017w      3 calls

**************************************************************************************

Host: headnode

Timers On : Thu Jul  9 08:07:34 2026
Timers Off: Thu Jul  9 08:07:41 2026

Wall Time:        7.09 seconds

                                                       Time (seconds)
Module                                       User      System        Wall        Calls
Libint2ERI::Libint2ERI              :      0.000u      0.017s      0.017w      3 calls

--------------------------------------------------------------------------------------
Libint2ERI::Libint2ERI              :      0.000u      0.017s      0.017w      3 calls

**************************************************************************************

Host: headnode

Timers On : Thu Jul  9 08:11:26 2026
Timers Off: Thu Jul  9 08:11:28 2026

Wall Time:        2.20 seconds

                                                       Time (seconds)
Module                                       User      System        Wall        Calls
Libint2ERI::Libint2ERI              :      0.017u      0.017s      0.017w      3 calls

--------------------------------------------------------------------------------------
Libint2ERI::Libint2ERI              :      0.017u      0.017s      0.017w      3 calls

**************************************************************************************

Host: headnode

Timers On : Thu Jul  9 08:11:46 2026
Timers Off: Thu Jul  9 08:11:48 2026

Wall Time:        2.21 seconds

                                                       Time (seconds)
Module                                       User      System        Wall        Calls
Libint2ERI::Libint2ERI              :      0.017u      0.033s      0.017w      3 calls

--------------------------------------------------------------------------------------
Libint2ERI::Libint2ERI              :      0.017u      0.033s      0.017w      3 calls

**************************************************************************************

Host: headnode

Timers On : Thu Jul  9 08:12:13 2026
Timers Off: Thu Jul  9 08:12:21 2026

Wall Time:        7.12 seconds

                                                       Time (seconds)
Module                                       User      System        Wall        Calls
Libint2ERI::Libint2ERI              :      0.017u      0.033s      0.017w      3 calls

--------------------------------------------------------------------------------------
Libint2ERI::Libint2ERI              :      0.017u      0.033s      0.017w      3 calls

**************************************************************************************

Host: headnode

Timers On : Thu Jul  9 09:20:41 2026
Timers Off: Thu Jul  9 09:20:48 2026

Wall Time:        7.26 seconds

                                                       Time (seconds)
Module                                       User      System        Wall        Calls
Libint2ERI::Libint2ERI              :      0.000u      0.017s      0.017w      3 calls

--------------------------------------------------------------------------------------
Libint2ERI::Libint2ERI              :      0.000u      0.017s      0.017w      3 calls

**************************************************************************************

Host: headnode

Timers On : Thu Jul  9 09:34:49 2026
Timers Off: Thu Jul  9 09:34:56 2026

Wall Time:        7.18 seconds

                                                       Time (seconds)
Module                                       User      System        Wall        Calls
Libint2ERI::Libint2ERI              :      0.017u      0.017s      0.017w      3 calls

--------------------------------------------------------------------------------------
Libint2ERI::Libint2ERI              :      0.017u      0.017s      0.017w      3 calls

**************************************************************************************

Host: headnode

Timers On : Tue Jul 14 16:37:16 2026
Timers Off: Tue Jul 14 16:37:24 2026

Wall Time:        7.46 seconds

                                                       Time (seconds)
Module                                       User      System        Wall        Calls
Libint2ERI::Libint2ERI              :      0.017u      0.000s      0.017w      3 calls

--------------------------------------------------------------------------------------
Libint2ERI::Libint2ERI              :      0.017u      0.000s      0.017w      3 calls

**************************************************************************************

Host: headnode

Timers On : Tue Jul 14 16:38:46 2026
Timers Off: Tue Jul 14 16:38:48 2026

Wall Time:        1.48 seconds

                                                       Time (seconds)
Module                                       User      System        Wall        Calls
Libint2ERI::Libint2ERI              :      0.000u      0.000s      0.001w      3 calls

--------------------------------------------------------------------------------------
Libint2ERI::Libint2ERI              :      0.000u      0.000s      0.001w      3 calls

**************************************************************************************
