
Host: headnode

Timers On : Sun Nov  9 12:59:39 2025
Timers Off: Sun Nov  9 12:59:45 2025

Wall Time:        5.63 seconds

                                                       Time (seconds)
Module                                       User      System        Wall        Calls

--------------------------------------------------------------------------------------

**************************************************************************************

Host: headnode

Timers On : Sun Nov  9 13:00:12 2025
Timers Off: Sun Nov  9 13:00:13 2025

Wall Time:        1.02 seconds

                                                       Time (seconds)
Module                                       User      System        Wall        Calls

--------------------------------------------------------------------------------------

**************************************************************************************

Host: headnode

Timers On : Sun Nov  9 13:00:29 2025
Timers Off: Sun Nov  9 13:00:30 2025

Wall Time:        0.83 seconds

                                                       Time (seconds)
Module                                       User      System        Wall        Calls
Libint2ERI::Libint2ERI              :      0.000u      0.000s      0.000w      1 calls

--------------------------------------------------------------------------------------
Libint2ERI::Libint2ERI              :      0.000u      0.000s      0.000w      1 calls

**************************************************************************************

Host: headnode

Timers On : Sun Nov  9 13:00:57 2025
Timers Off: Sun Nov  9 13:00:58 2025

Wall Time:        0.90 seconds

                                                       Time (seconds)
Module                                       User      System        Wall        Calls
Libint2ERI::Libint2ERI              :      0.000u      0.000s      0.000w      3 calls

--------------------------------------------------------------------------------------
Libint2ERI::Libint2ERI              :      0.000u      0.000s      0.000w      3 calls

**************************************************************************************

Host: headnode

Timers On : Sun Nov  9 13:01:49 2025
Timers Off: Sun Nov  9 13:01:51 2025

Wall Time:        2.25 seconds

                                                       Time (seconds)
Module                                       User      System        Wall        Calls
Libint2ERI::Libint2ERI              :      0.000u      0.000s      0.018w      3 calls

--------------------------------------------------------------------------------------
Libint2ERI::Libint2ERI              :      0.000u      0.000s      0.018w      3 calls

**************************************************************************************

Host: headnode

Timers On : Sun Nov  9 13:02:25 2025
Timers Off: Sun Nov  9 13:02:25 2025

Wall Time:        0.82 seconds

                                                       Time (seconds)
Module                                       User      System        Wall        Calls

--------------------------------------------------------------------------------------

**************************************************************************************

Host: headnode

Timers On : Sun Nov  9 13:07:18 2025
Timers Off: Sun Nov  9 13:07:19 2025

Wall Time:        0.95 seconds

                                                       Time (seconds)
Module                                       User      System        Wall        Calls
Libint2ERI::Libint2ERI              :      0.000u      0.000s      0.009w      2 calls

--------------------------------------------------------------------------------------
Libint2ERI::Libint2ERI              :      0.000u      0.000s      0.009w      2 calls

**************************************************************************************

Host: headnode

Timers On : Sun Nov  9 13:12:09 2025
Timers Off: Sun Nov  9 13:12:11 2025

Wall Time:        2.23 seconds

                                                       Time (seconds)
Module                                       User      System        Wall        Calls
Libint2ERI::Libint2ERI              :      0.017u      0.017s      0.017w      3 calls

--------------------------------------------------------------------------------------
Libint2ERI::Libint2ERI              :      0.017u      0.017s      0.017w      3 calls

**************************************************************************************

Host: headnode

Timers On : Sun Nov  9 13:16:54 2025
Timers Off: Sun Nov  9 13:16:56 2025

Wall Time:        1.90 seconds

                                                       Time (seconds)
Module                                       User      System        Wall        Calls
Libint2ERI::Libint2ERI              :      0.017u      0.000s      0.018w      3 calls

--------------------------------------------------------------------------------------
Libint2ERI::Libint2ERI              :      0.017u      0.000s      0.018w      3 calls

**************************************************************************************

Host: headnode

Timers On : Sun Nov  9 13:17:30 2025
Timers Off: Sun Nov  9 13:17:33 2025

Wall Time:        2.19 seconds

                                                       Time (seconds)
Module                                       User      System        Wall        Calls
Libint2ERI::Libint2ERI              :      0.033u      0.000s      0.017w      3 calls

--------------------------------------------------------------------------------------
Libint2ERI::Libint2ERI              :      0.033u      0.000s      0.017w      3 calls

**************************************************************************************

Host: headnode

Timers On : Sun Nov  9 14:07:24 2025
Timers Off: Sun Nov  9 14:07:25 2025

Wall Time:        0.74 seconds

                                                       Time (seconds)
Module                                       User      System        Wall        Calls

--------------------------------------------------------------------------------------

**************************************************************************************

Host: headnode

Timers On : Sun Nov  9 14:08:14 2025
Timers Off: Sun Nov  9 14:08:16 2025

Wall Time:        2.36 seconds

                                                       Time (seconds)
Module                                       User      System        Wall        Calls
Libint2ERI::Libint2ERI              :      0.017u      0.033s      0.018w      3 calls

--------------------------------------------------------------------------------------
Libint2ERI::Libint2ERI              :      0.017u      0.033s      0.018w      3 calls

**************************************************************************************

Host: headnode

Timers On : Sun Nov  9 14:17:20 2025
Timers Off: Sun Nov  9 14:17:22 2025

Wall Time:        2.26 seconds

                                                       Time (seconds)
Module                                       User      System        Wall        Calls
Libint2ERI::Libint2ERI              :      0.017u      0.000s      0.018w      3 calls

--------------------------------------------------------------------------------------
Libint2ERI::Libint2ERI              :      0.017u      0.000s      0.018w      3 calls

**************************************************************************************

Host: headnode

Timers On : Sun Nov  9 14:21:25 2025
Timers Off: Sun Nov  9 14:21:28 2025

Wall Time:        2.28 seconds

                                                       Time (seconds)
Module                                       User      System        Wall        Calls
Libint2ERI::Libint2ERI              :      0.000u      0.017s      0.017w      3 calls

--------------------------------------------------------------------------------------
Libint2ERI::Libint2ERI              :      0.000u      0.017s      0.017w      3 calls

**************************************************************************************

Host: headnode

Timers On : Sun Nov  9 14:21:51 2025
Timers Off: Sun Nov  9 14:21:54 2025

Wall Time:        2.21 seconds

                                                       Time (seconds)
Module                                       User      System        Wall        Calls
Libint2ERI::Libint2ERI              :      0.033u      0.000s      0.018w      3 calls

--------------------------------------------------------------------------------------
Libint2ERI::Libint2ERI              :      0.033u      0.000s      0.018w      3 calls

**************************************************************************************

Host: headnode

Timers On : Sun Nov  9 18:10:31 2025
Timers Off: Sun Nov  9 18:10:32 2025

Wall Time:        0.91 seconds

                                                       Time (seconds)
Module                                       User      System        Wall        Calls
Libint2ERI::Libint2ERI              :      0.017u      0.017s      0.009w      2 calls

--------------------------------------------------------------------------------------
Libint2ERI::Libint2ERI              :      0.017u      0.017s      0.009w      2 calls

**************************************************************************************

Host: headnode

Timers On : Sun Nov  9 18:17:54 2025
Timers Off: Sun Nov  9 18:17:55 2025

Wall Time:        0.66 seconds

                                                       Time (seconds)
Module                                       User      System        Wall        Calls

--------------------------------------------------------------------------------------

**************************************************************************************

Host: headnode

Timers On : Sun Nov  9 18:18:08 2025
Timers Off: Sun Nov  9 18:18:09 2025

Wall Time:        0.88 seconds

                                                       Time (seconds)
Module                                       User      System        Wall        Calls
Libint2ERI::Libint2ERI              :      0.000u      0.000s      0.009w      2 calls

--------------------------------------------------------------------------------------
Libint2ERI::Libint2ERI              :      0.000u      0.000s      0.009w      2 calls

**************************************************************************************

Host: headnode

Timers On : Sun Nov  9 18:18:49 2025
Timers Off: Sun Nov  9 18:18:49 2025

Wall Time:        0.65 seconds

                                                       Time (seconds)
Module                                       User      System        Wall        Calls

--------------------------------------------------------------------------------------

**************************************************************************************

Host: headnode

Timers On : Sun Nov  9 18:19:09 2025
Timers Off: Sun Nov  9 18:19:09 2025

Wall Time:        0.73 seconds

                                                       Time (seconds)
Module                                       User      System        Wall        Calls

--------------------------------------------------------------------------------------

**************************************************************************************

Host: headnode

Timers On : Sun Nov  9 18:19:34 2025
Timers Off: Sun Nov  9 18:19:34 2025

Wall Time:        0.86 seconds

                                                       Time (seconds)
Module                                       User      System        Wall        Calls
Libint2ERI::Libint2ERI              :      0.000u      0.017s      0.009w      2 calls

--------------------------------------------------------------------------------------
Libint2ERI::Libint2ERI              :      0.000u      0.017s      0.009w      2 calls

**************************************************************************************

Host: headnode

Timers On : Sun Nov  9 18:21:13 2025
Timers Off: Sun Nov  9 18:21:14 2025

Wall Time:        0.93 seconds

                                                       Time (seconds)
Module                                       User      System        Wall        Calls
Libint2ERI::Libint2ERI              :      0.017u      0.017s      0.009w      2 calls

--------------------------------------------------------------------------------------
Libint2ERI::Libint2ERI              :      0.017u      0.017s      0.009w      2 calls

**************************************************************************************

Host: headnode

Timers On : Sun Nov  9 18:22:48 2025
Timers Off: Sun Nov  9 18:22:49 2025

Wall Time:        0.89 seconds

                                                       Time (seconds)
Module                                       User      System        Wall        Calls
Libint2ERI::Libint2ERI              :      0.017u      0.000s      0.009w      2 calls

--------------------------------------------------------------------------------------
Libint2ERI::Libint2ERI              :      0.017u      0.000s      0.009w      2 calls

**************************************************************************************

Host: headnode

Timers On : Sun Nov  9 18:23:13 2025
Timers Off: Sun Nov  9 18:23:14 2025

Wall Time:        0.86 seconds

                                                       Time (seconds)
Module                                       User      System        Wall        Calls
Libint2ERI::Libint2ERI              :      0.000u      0.000s      0.009w      2 calls

--------------------------------------------------------------------------------------
Libint2ERI::Libint2ERI              :      0.000u      0.000s      0.009w      2 calls

**************************************************************************************

Host: headnode

Timers On : Sun Nov  9 18:23:30 2025
Timers Off: Sun Nov  9 18:23:31 2025

Wall Time:        0.85 seconds

                                                       Time (seconds)
Module                                       User      System        Wall        Calls
Libint2ERI::Libint2ERI              :      0.017u      0.000s      0.009w      2 calls

--------------------------------------------------------------------------------------
Libint2ERI::Libint2ERI              :      0.017u      0.000s      0.009w      2 calls

**************************************************************************************

Host: headnode

Timers On : Sun Nov  9 18:25:50 2025
Timers Off: Sun Nov  9 18:25:51 2025

Wall Time:        0.88 seconds

                                                       Time (seconds)
Module                                       User      System        Wall        Calls
Libint2ERI::Libint2ERI              :      0.017u      0.017s      0.008w      2 calls

--------------------------------------------------------------------------------------
Libint2ERI::Libint2ERI              :      0.017u      0.017s      0.008w      2 calls

**************************************************************************************

Host: headnode

Timers On : Sun Nov  9 18:26:37 2025
Timers Off: Sun Nov  9 18:26:38 2025

Wall Time:        0.92 seconds

                                                       Time (seconds)
Module                                       User      System        Wall        Calls
Libint2ERI::Libint2ERI              :      0.000u      0.017s      0.008w      2 calls

--------------------------------------------------------------------------------------
Libint2ERI::Libint2ERI              :      0.000u      0.017s      0.008w      2 calls

**************************************************************************************

Host: headnode

Timers On : Sun Nov  9 18:47:47 2025
Timers Off: Sun Nov  9 18:47:48 2025

Wall Time:        0.98 seconds

                                                       Time (seconds)
Module                                       User      System        Wall        Calls
Libint2ERI::Libint2ERI              :      0.017u      0.017s      0.009w      2 calls

--------------------------------------------------------------------------------------
Libint2ERI::Libint2ERI              :      0.017u      0.017s      0.009w      2 calls

**************************************************************************************

Host: headnode

Timers On : Sun Nov  9 19:05:17 2025
Timers Off: Sun Nov  9 19:05:17 2025

Wall Time:        0.87 seconds

                                                       Time (seconds)
Module                                       User      System        Wall        Calls

--------------------------------------------------------------------------------------

**************************************************************************************

Host: headnode

Timers On : Sun Nov  9 19:36:12 2025
Timers Off: Sun Nov  9 19:36:13 2025

Wall Time:        0.87 seconds

                                                       Time (seconds)
Module                                       User      System        Wall        Calls

--------------------------------------------------------------------------------------

**************************************************************************************

Host: headnode

Timers On : Sun Nov  9 19:37:06 2025
Timers Off: Sun Nov  9 19:37:07 2025

Wall Time:        0.76 seconds

                                                       Time (seconds)
Module                                       User      System        Wall        Calls

--------------------------------------------------------------------------------------

**************************************************************************************

Host: headnode

Timers On : Sun Nov  9 19:38:29 2025
Timers Off: Sun Nov  9 19:38:30 2025

Wall Time:        0.78 seconds

                                                       Time (seconds)
Module                                       User      System        Wall        Calls

--------------------------------------------------------------------------------------

**************************************************************************************
