
Host: vlogin2.ccqc.uga.edu

Timers On : Sun Jan  5 14:30:45 2025
Timers Off: Sun Jan  5 14:30:46 2025

Wall Time:        0.97 seconds

                                                       Time (seconds)
Module                                       User      System        Wall        Calls

--------------------------------------------------------------------------------------

**************************************************************************************

Host: vlogin2.ccqc.uga.edu

Timers On : Sun Jan  5 14:31:08 2025
Timers Off: Sun Jan  5 14:31:09 2025

Wall Time:        0.63 seconds

                                                       Time (seconds)
Module                                       User      System        Wall        Calls

--------------------------------------------------------------------------------------

**************************************************************************************

Host: vlogin2.ccqc.uga.edu

Timers On : Sun Jan  5 14:35:09 2025
Timers Off: Sun Jan  5 14:35:10 2025

Wall Time:        1.07 seconds

                                                       Time (seconds)
Module                                       User      System        Wall        Calls

--------------------------------------------------------------------------------------

**************************************************************************************

Host: vlogin2.ccqc.uga.edu

Timers On : Sun Jan  5 14:36:05 2025
Timers Off: Sun Jan  5 14:36:06 2025

Wall Time:        0.96 seconds

                                                       Time (seconds)
Module                                       User      System        Wall        Calls

--------------------------------------------------------------------------------------

**************************************************************************************

Host: vlogin2.ccqc.uga.edu

Timers On : Sun Jan  5 14:45:40 2025
Timers Off: Sun Jan  5 14:45:41 2025

Wall Time:        1.09 seconds

                                                       Time (seconds)
Module                                       User      System        Wall        Calls

--------------------------------------------------------------------------------------

**************************************************************************************

Host: vlogin2.ccqc.uga.edu

Timers On : Sun Jan  5 14:46:21 2025
Timers Off: Sun Jan  5 14:46:22 2025

Wall Time:        0.91 seconds

                                                       Time (seconds)
Module                                       User      System        Wall        Calls

--------------------------------------------------------------------------------------

**************************************************************************************

Host: vlogin2.ccqc.uga.edu

Timers On : Sun Jan  5 14:58:55 2025
Timers Off: Sun Jan  5 14:58:56 2025

Wall Time:        1.29 seconds

                                                       Time (seconds)
Module                                       User      System        Wall        Calls

--------------------------------------------------------------------------------------

**************************************************************************************

Host: vlogin2.ccqc.uga.edu

Timers On : Sun Jan  5 14:59:25 2025
Timers Off: Sun Jan  5 14:59:26 2025

Wall Time:        0.80 seconds

                                                       Time (seconds)
Module                                       User      System        Wall        Calls

--------------------------------------------------------------------------------------

**************************************************************************************

Host: vlogin2.ccqc.uga.edu

Timers On : Sun Jan  5 15:38:01 2025
Timers Off: Sun Jan  5 15:38:02 2025

Wall Time:        1.25 seconds

                                                       Time (seconds)
Module                                       User      System        Wall        Calls

--------------------------------------------------------------------------------------

**************************************************************************************

Host: vlogin2.ccqc.uga.edu

Timers On : Sun Jan  5 15:38:24 2025
Timers Off: Sun Jan  5 15:38:25 2025

Wall Time:        0.81 seconds

                                                       Time (seconds)
Module                                       User      System        Wall        Calls
Libint2ERI::Libint2ERI              :      0.000u      0.000s      0.001w      1 calls

--------------------------------------------------------------------------------------
Libint2ERI::Libint2ERI              :      0.000u      0.000s      0.001w      1 calls

**************************************************************************************

Host: vlogin2.ccqc.uga.edu

Timers On : Sun Jan  5 15:38:48 2025
Timers Off: Sun Jan  5 15:38:49 2025

Wall Time:        1.00 seconds

                                                       Time (seconds)
Module                                       User      System        Wall        Calls
Libint2ERI::Libint2ERI              :      0.000u      0.000s      0.001w      1 calls

--------------------------------------------------------------------------------------
Libint2ERI::Libint2ERI              :      0.000u      0.000s      0.001w      1 calls

**************************************************************************************

Host: vlogin2.ccqc.uga.edu

Timers On : Sun Jan  5 15:39:09 2025
Timers Off: Sun Jan  5 15:39:10 2025

Wall Time:        0.98 seconds

                                                       Time (seconds)
Module                                       User      System        Wall        Calls
Libint2ERI::Libint2ERI              :      0.000u      0.000s      0.000w      1 calls

--------------------------------------------------------------------------------------
Libint2ERI::Libint2ERI              :      0.000u      0.000s      0.000w      1 calls

**************************************************************************************

Host: vlogin2.ccqc.uga.edu

Timers On : Sun Jan  5 15:51:34 2025
Timers Off: Sun Jan  5 15:51:35 2025

Wall Time:        1.31 seconds

                                                       Time (seconds)
Module                                       User      System        Wall        Calls
Libint2ERI::Libint2ERI              :      0.000u      0.000s      0.001w      1 calls

--------------------------------------------------------------------------------------
Libint2ERI::Libint2ERI              :      0.000u      0.000s      0.001w      1 calls

**************************************************************************************

Host: vlogin2.ccqc.uga.edu

Timers On : Sun Jan  5 15:51:51 2025
Timers Off: Sun Jan  5 15:51:52 2025

Wall Time:        0.96 seconds

                                                       Time (seconds)
Module                                       User      System        Wall        Calls
Libint2ERI::Libint2ERI              :      0.017u      0.000s      0.001w      1 calls

--------------------------------------------------------------------------------------
Libint2ERI::Libint2ERI              :      0.017u      0.000s      0.001w      1 calls

**************************************************************************************

Host: vlogin2.ccqc.uga.edu

Timers On : Sun Jan  5 15:54:48 2025
Timers Off: Sun Jan  5 15:54:49 2025

Wall Time:        1.26 seconds

                                                       Time (seconds)
Module                                       User      System        Wall        Calls
Libint2ERI::Libint2ERI              :      0.000u      0.000s      0.001w      1 calls

--------------------------------------------------------------------------------------
Libint2ERI::Libint2ERI              :      0.000u      0.000s      0.001w      1 calls

**************************************************************************************

Host: vlogin2.ccqc.uga.edu

Timers On : Sun Jan  5 15:55:17 2025
Timers Off: Sun Jan  5 15:55:17 2025

Wall Time:        0.67 seconds

                                                       Time (seconds)
Module                                       User      System        Wall        Calls
Libint2ERI::Libint2ERI              :      0.000u      0.000s      0.000w      1 calls

--------------------------------------------------------------------------------------
Libint2ERI::Libint2ERI              :      0.000u      0.000s      0.000w      1 calls

**************************************************************************************

Host: vlogin2.ccqc.uga.edu

Timers On : Sun Jan  5 16:22:08 2025
Timers Off: Sun Jan  5 16:22:09 2025

Wall Time:        1.00 seconds

                                                       Time (seconds)
Module                                       User      System        Wall        Calls
Libint2ERI::Libint2ERI              :      0.000u      0.000s      0.000w      1 calls

--------------------------------------------------------------------------------------
Libint2ERI::Libint2ERI              :      0.000u      0.000s      0.000w      1 calls

**************************************************************************************

Host: vlogin2.ccqc.uga.edu

Timers On : Sun Jan  5 16:30:01 2025
Timers Off: Sun Jan  5 16:30:02 2025

Wall Time:        1.11 seconds

                                                       Time (seconds)
Module                                       User      System        Wall        Calls
Libint2ERI::Libint2ERI              :      0.000u      0.000s      0.000w      1 calls

--------------------------------------------------------------------------------------
Libint2ERI::Libint2ERI              :      0.000u      0.000s      0.000w      1 calls

**************************************************************************************

Host: vlogin2.ccqc.uga.edu

Timers On : Sun Jan  5 16:30:41 2025
Timers Off: Sun Jan  5 16:30:42 2025

Wall Time:        0.90 seconds

                                                       Time (seconds)
Module                                       User      System        Wall        Calls
Libint2ERI::Libint2ERI              :      0.000u      0.000s      0.001w      1 calls

--------------------------------------------------------------------------------------
Libint2ERI::Libint2ERI              :      0.000u      0.000s      0.001w      1 calls

**************************************************************************************

Host: vlogin2.ccqc.uga.edu

Timers On : Sun Jan  5 16:32:27 2025
Timers Off: Sun Jan  5 16:32:28 2025

Wall Time:        1.10 seconds

                                                       Time (seconds)
Module                                       User      System        Wall        Calls
Libint2ERI::Libint2ERI              :      0.000u      0.000s      0.000w      1 calls

--------------------------------------------------------------------------------------
Libint2ERI::Libint2ERI              :      0.000u      0.000s      0.000w      1 calls

**************************************************************************************

Host: vlogin2.ccqc.uga.edu

Timers On : Sun Jan  5 16:32:47 2025
Timers Off: Sun Jan  5 16:32:48 2025

Wall Time:        1.05 seconds

                                                       Time (seconds)
Module                                       User      System        Wall        Calls
Libint2ERI::Libint2ERI              :      0.000u      0.000s      0.001w      1 calls

--------------------------------------------------------------------------------------
Libint2ERI::Libint2ERI              :      0.000u      0.000s      0.001w      1 calls

**************************************************************************************

Host: vlogin2.ccqc.uga.edu

Timers On : Sun Jan  5 16:43:35 2025
Timers Off: Sun Jan  5 16:43:36 2025

Wall Time:        1.23 seconds

                                                       Time (seconds)
Module                                       User      System        Wall        Calls
Libint2ERI::Libint2ERI              :      0.000u      0.000s      0.000w      1 calls

--------------------------------------------------------------------------------------
Libint2ERI::Libint2ERI              :      0.000u      0.000s      0.000w      1 calls

**************************************************************************************

Host: vlogin2.ccqc.uga.edu

Timers On : Sun Jan  5 16:44:17 2025
Timers Off: Sun Jan  5 16:44:18 2025

Wall Time:        1.03 seconds

                                                       Time (seconds)
Module                                       User      System        Wall        Calls
Libint2ERI::Libint2ERI              :      0.000u      0.000s      0.000w      1 calls

--------------------------------------------------------------------------------------
Libint2ERI::Libint2ERI              :      0.000u      0.000s      0.000w      1 calls

**************************************************************************************

Host: vlogin2.ccqc.uga.edu

Timers On : Sun Jan  5 16:44:40 2025
Timers Off: Sun Jan  5 16:44:41 2025

Wall Time:        1.01 seconds

                                                       Time (seconds)
Module                                       User      System        Wall        Calls
Libint2ERI::Libint2ERI              :      0.000u      0.000s      0.000w      1 calls

--------------------------------------------------------------------------------------
Libint2ERI::Libint2ERI              :      0.000u      0.000s      0.000w      1 calls

**************************************************************************************

Host: vlogin2.ccqc.uga.edu

Timers On : Sun Jan  5 16:48:45 2025
Timers Off: Sun Jan  5 16:48:46 2025

Wall Time:        1.26 seconds

                                                       Time (seconds)
Module                                       User      System        Wall        Calls
Libint2ERI::Libint2ERI              :      0.000u      0.000s      0.001w      1 calls

--------------------------------------------------------------------------------------
Libint2ERI::Libint2ERI              :      0.000u      0.000s      0.001w      1 calls

**************************************************************************************

Host: vlogin2.ccqc.uga.edu

Timers On : Sun Jan  5 16:50:36 2025
Timers Off: Sun Jan  5 16:50:38 2025

Wall Time:        1.54 seconds

                                                       Time (seconds)
Module                                       User      System        Wall        Calls

--------------------------------------------------------------------------------------

**************************************************************************************

Host: vlogin2.ccqc.uga.edu

Timers On : Sun Jan  5 16:50:55 2025
Timers Off: Sun Jan  5 16:50:56 2025

Wall Time:        1.00 seconds

                                                       Time (seconds)
Module                                       User      System        Wall        Calls
Libint2ERI::Libint2ERI              :      0.000u      0.000s      0.000w      1 calls

--------------------------------------------------------------------------------------
Libint2ERI::Libint2ERI              :      0.000u      0.000s      0.000w      1 calls

**************************************************************************************

Host: vlogin2.ccqc.uga.edu

Timers On : Sun Jan  5 16:51:38 2025
Timers Off: Sun Jan  5 16:51:39 2025

Wall Time:        0.97 seconds

                                                       Time (seconds)
Module                                       User      System        Wall        Calls
Libint2ERI::Libint2ERI              :      0.000u      0.000s      0.001w      1 calls

--------------------------------------------------------------------------------------
Libint2ERI::Libint2ERI              :      0.000u      0.000s      0.001w      1 calls

**************************************************************************************

Host: vlogin2.ccqc.uga.edu

Timers On : Sun Jan  5 16:52:54 2025
Timers Off: Sun Jan  5 16:52:55 2025

Wall Time:        0.98 seconds

                                                       Time (seconds)
Module                                       User      System        Wall        Calls
Libint2ERI::Libint2ERI              :      0.000u      0.000s      0.001w      1 calls

--------------------------------------------------------------------------------------
Libint2ERI::Libint2ERI              :      0.000u      0.000s      0.001w      1 calls

**************************************************************************************

Host: vlogin2.ccqc.uga.edu

Timers On : Sun Jan  5 16:53:17 2025
Timers Off: Sun Jan  5 16:53:18 2025

Wall Time:        1.12 seconds

                                                       Time (seconds)
Module                                       User      System        Wall        Calls
Libint2ERI::Libint2ERI              :      0.000u      0.000s      0.001w      1 calls

--------------------------------------------------------------------------------------
Libint2ERI::Libint2ERI              :      0.000u      0.000s      0.001w      1 calls

**************************************************************************************

Host: vlogin2.ccqc.uga.edu

Timers On : Sun Jan  5 16:55:19 2025
Timers Off: Sun Jan  5 16:55:20 2025

Wall Time:        1.22 seconds

                                                       Time (seconds)
Module                                       User      System        Wall        Calls
Libint2ERI::Libint2ERI              :      0.000u      0.000s      0.000w      1 calls

--------------------------------------------------------------------------------------
Libint2ERI::Libint2ERI              :      0.000u      0.000s      0.000w      1 calls

**************************************************************************************

Host: vlogin2.ccqc.uga.edu

Timers On : Sun Jan  5 16:55:36 2025
Timers Off: Sun Jan  5 16:55:37 2025

Wall Time:        1.02 seconds

                                                       Time (seconds)
Module                                       User      System        Wall        Calls
Libint2ERI::Libint2ERI              :      0.000u      0.000s      0.001w      1 calls

--------------------------------------------------------------------------------------
Libint2ERI::Libint2ERI              :      0.000u      0.000s      0.001w      1 calls

**************************************************************************************

Host: vlogin2.ccqc.uga.edu

Timers On : Sun Jan  5 17:16:05 2025
Timers Off: Sun Jan  5 17:16:06 2025

Wall Time:        1.42 seconds

                                                       Time (seconds)
Module                                       User      System        Wall        Calls
Libint2ERI::Libint2ERI              :      0.000u      0.000s      0.001w      1 calls

--------------------------------------------------------------------------------------
Libint2ERI::Libint2ERI              :      0.000u      0.000s      0.001w      1 calls

**************************************************************************************

Host: vlogin2.ccqc.uga.edu

Timers On : Sun Jan  5 17:16:44 2025
Timers Off: Sun Jan  5 17:16:45 2025

Wall Time:        0.87 seconds

                                                       Time (seconds)
Module                                       User      System        Wall        Calls
Libint2ERI::Libint2ERI              :      0.000u      0.000s      0.001w      1 calls

--------------------------------------------------------------------------------------
Libint2ERI::Libint2ERI              :      0.000u      0.000s      0.001w      1 calls

**************************************************************************************

Host: vlogin2.ccqc.uga.edu

Timers On : Sun Jan  5 17:17:01 2025
Timers Off: Sun Jan  5 17:17:02 2025

Wall Time:        0.90 seconds

                                                       Time (seconds)
Module                                       User      System        Wall        Calls
Libint2ERI::Libint2ERI              :      0.000u      0.000s      0.001w      1 calls

--------------------------------------------------------------------------------------
Libint2ERI::Libint2ERI              :      0.000u      0.000s      0.001w      1 calls

**************************************************************************************

Host: vlogin2.ccqc.uga.edu

Timers On : Sun Jan  5 17:22:59 2025
Timers Off: Sun Jan  5 17:23:01 2025

Wall Time:        1.30 seconds

                                                       Time (seconds)
Module                                       User      System        Wall        Calls
Libint2ERI::Libint2ERI              :      0.000u      0.000s      0.001w      1 calls

--------------------------------------------------------------------------------------
Libint2ERI::Libint2ERI              :      0.000u      0.000s      0.001w      1 calls

**************************************************************************************

Host: vlogin2.ccqc.uga.edu

Timers On : Sun Jan  5 17:26:41 2025
Timers Off: Sun Jan  5 17:26:42 2025

Wall Time:        0.96 seconds

                                                       Time (seconds)
Module                                       User      System        Wall        Calls
Libint2ERI::Libint2ERI              :      0.000u      0.000s      0.001w      1 calls

--------------------------------------------------------------------------------------
Libint2ERI::Libint2ERI              :      0.000u      0.000s      0.001w      1 calls

**************************************************************************************

Host: vlogin2.ccqc.uga.edu

Timers On : Sun Jan  5 17:43:55 2025
Timers Off: Sun Jan  5 17:43:57 2025

Wall Time:        1.17 seconds

                                                       Time (seconds)
Module                                       User      System        Wall        Calls
Libint2ERI::Libint2ERI              :      0.000u      0.000s      0.001w      1 calls

--------------------------------------------------------------------------------------
Libint2ERI::Libint2ERI              :      0.000u      0.000s      0.001w      1 calls

**************************************************************************************

Host: vlogin2.ccqc.uga.edu

Timers On : Sun Jan  5 17:44:42 2025
Timers Off: Sun Jan  5 17:44:43 2025

Wall Time:        0.88 seconds

                                                       Time (seconds)
Module                                       User      System        Wall        Calls
Libint2ERI::Libint2ERI              :      0.000u      0.000s      0.001w      1 calls

--------------------------------------------------------------------------------------
Libint2ERI::Libint2ERI              :      0.000u      0.000s      0.001w      1 calls

**************************************************************************************

Host: vlogin2.ccqc.uga.edu

Timers On : Sun Jan  5 17:45:44 2025
Timers Off: Sun Jan  5 17:45:45 2025

Wall Time:        0.75 seconds

                                                       Time (seconds)
Module                                       User      System        Wall        Calls
Libint2ERI::Libint2ERI              :      0.000u      0.000s      0.000w      1 calls

--------------------------------------------------------------------------------------
Libint2ERI::Libint2ERI              :      0.000u      0.000s      0.000w      1 calls

**************************************************************************************

Host: vlogin2.ccqc.uga.edu

Timers On : Sun Jan  5 17:58:32 2025
Timers Off: Sun Jan  5 17:58:33 2025

Wall Time:        1.01 seconds

                                                       Time (seconds)
Module                                       User      System        Wall        Calls
Libint2ERI::Libint2ERI              :      0.000u      0.000s      0.000w      1 calls

--------------------------------------------------------------------------------------
Libint2ERI::Libint2ERI              :      0.000u      0.000s      0.000w      1 calls

**************************************************************************************

Host: vlogin2.ccqc.uga.edu

Timers On : Sun Jan  5 18:01:11 2025
Timers Off: Sun Jan  5 18:01:12 2025

Wall Time:        1.39 seconds

                                                       Time (seconds)
Module                                       User      System        Wall        Calls
Libint2ERI::Libint2ERI              :      0.000u      0.000s      0.001w      1 calls

--------------------------------------------------------------------------------------
Libint2ERI::Libint2ERI              :      0.000u      0.000s      0.001w      1 calls

**************************************************************************************

Host: vlogin2.ccqc.uga.edu

Timers On : Sun Jan  5 18:02:00 2025
Timers Off: Sun Jan  5 18:02:01 2025

Wall Time:        0.68 seconds

                                                       Time (seconds)
Module                                       User      System        Wall        Calls
Libint2ERI::Libint2ERI              :      0.017u      0.000s      0.001w      1 calls

--------------------------------------------------------------------------------------
Libint2ERI::Libint2ERI              :      0.017u      0.000s      0.001w      1 calls

**************************************************************************************
