
Host: vlogin2.ccqc.uga.edu

Timers On : Sun Jan  5 14:30:45 2025
Timers Off: Sun Jan  5 14:30:46 2025

Wall Time:        0.97 seconds

                                                       Time (seconds)
Module                                       User      System        Wall        Calls

--------------------------------------------------------------------------------------

**************************************************************************************

Host: vlogin2.ccqc.uga.edu

Timers On : Sun Jan  5 14:31:08 2025
Timers Off: Sun Jan  5 14:31:09 2025

Wall Time:        0.63 seconds

                                                       Time (seconds)
Module                                       User      System        Wall        Calls

--------------------------------------------------------------------------------------

**************************************************************************************

Host: vlogin2.ccqc.uga.edu

Timers On : Sun Jan  5 14:35:09 2025
Timers Off: Sun Jan  5 14:35:10 2025

Wall Time:        1.07 seconds

                                                       Time (seconds)
Module                                       User      System        Wall        Calls

--------------------------------------------------------------------------------------

**************************************************************************************

Host: vlogin2.ccqc.uga.edu

Timers On : Sun Jan  5 14:36:05 2025
Timers Off: Sun Jan  5 14:36:06 2025

Wall Time:        0.96 seconds

                                                       Time (seconds)
Module                                       User      System        Wall        Calls

--------------------------------------------------------------------------------------

**************************************************************************************

Host: vlogin2.ccqc.uga.edu

Timers On : Sun Jan  5 14:45:40 2025
Timers Off: Sun Jan  5 14:45:41 2025

Wall Time:        1.09 seconds

                                                       Time (seconds)
Module                                       User      System        Wall        Calls

--------------------------------------------------------------------------------------

**************************************************************************************

Host: vlogin2.ccqc.uga.edu

Timers On : Sun Jan  5 14:46:21 2025
Timers Off: Sun Jan  5 14:46:22 2025

Wall Time:        0.91 seconds

                                                       Time (seconds)
Module                                       User      System        Wall        Calls

--------------------------------------------------------------------------------------

**************************************************************************************

Host: vlogin2.ccqc.uga.edu

Timers On : Sun Jan  5 14:58:55 2025
Timers Off: Sun Jan  5 14:58:56 2025

Wall Time:        1.29 seconds

                                                       Time (seconds)
Module                                       User      System        Wall        Calls

--------------------------------------------------------------------------------------

**************************************************************************************

Host: vlogin2.ccqc.uga.edu

Timers On : Sun Jan  5 14:59:25 2025
Timers Off: Sun Jan  5 14:59:26 2025

Wall Time:        0.80 seconds

                                                       Time (seconds)
Module                                       User      System        Wall        Calls

--------------------------------------------------------------------------------------

**************************************************************************************

Host: vlogin2.ccqc.uga.edu

Timers On : Sun Jan  5 15:38:01 2025
Timers Off: Sun Jan  5 15:38:02 2025

Wall Time:        1.25 seconds

                                                       Time (seconds)
Module                                       User      System        Wall        Calls

--------------------------------------------------------------------------------------

**************************************************************************************

Host: vlogin2.ccqc.uga.edu

Timers On : Sun Jan  5 15:38:24 2025
Timers Off: Sun Jan  5 15:38:25 2025

Wall Time:        0.81 seconds

                                                       Time (seconds)
Module                                       User      System        Wall        Calls
Libint2ERI::Libint2ERI              :      0.000u      0.000s      0.001w      1 calls

--------------------------------------------------------------------------------------
Libint2ERI::Libint2ERI              :      0.000u      0.000s      0.001w      1 calls

**************************************************************************************

Host: vlogin2.ccqc.uga.edu

Timers On : Sun Jan  5 15:38:48 2025
Timers Off: Sun Jan  5 15:38:49 2025

Wall Time:        1.00 seconds

                                                       Time (seconds)
Module                                       User      System        Wall        Calls
Libint2ERI::Libint2ERI              :      0.000u      0.000s      0.001w      1 calls

--------------------------------------------------------------------------------------
Libint2ERI::Libint2ERI              :      0.000u      0.000s      0.001w      1 calls

**************************************************************************************

Host: vlogin2.ccqc.uga.edu

Timers On : Sun Jan  5 15:39:09 2025
Timers Off: Sun Jan  5 15:39:10 2025

Wall Time:        0.98 seconds

                                                       Time (seconds)
Module                                       User      System        Wall        Calls
Libint2ERI::Libint2ERI              :      0.000u      0.000s      0.000w      1 calls

--------------------------------------------------------------------------------------
Libint2ERI::Libint2ERI              :      0.000u      0.000s      0.000w      1 calls

**************************************************************************************

Host: vlogin2.ccqc.uga.edu

Timers On : Sun Jan  5 15:51:34 2025
Timers Off: Sun Jan  5 15:51:35 2025

Wall Time:        1.31 seconds

                                                       Time (seconds)
Module                                       User      System        Wall        Calls
Libint2ERI::Libint2ERI              :      0.000u      0.000s      0.001w      1 calls

--------------------------------------------------------------------------------------
Libint2ERI::Libint2ERI              :      0.000u      0.000s      0.001w      1 calls

**************************************************************************************

Host: vlogin2.ccqc.uga.edu

Timers On : Sun Jan  5 15:51:51 2025
Timers Off: Sun Jan  5 15:51:52 2025

Wall Time:        0.96 seconds

                                                       Time (seconds)
Module                                       User      System        Wall        Calls
Libint2ERI::Libint2ERI              :      0.017u      0.000s      0.001w      1 calls

--------------------------------------------------------------------------------------
Libint2ERI::Libint2ERI              :      0.017u      0.000s      0.001w      1 calls

**************************************************************************************

Host: vlogin2.ccqc.uga.edu

Timers On : Sun Jan  5 15:54:48 2025
Timers Off: Sun Jan  5 15:54:49 2025

Wall Time:        1.26 seconds

                                                       Time (seconds)
Module                                       User      System        Wall        Calls
Libint2ERI::Libint2ERI              :      0.000u      0.000s      0.001w      1 calls

--------------------------------------------------------------------------------------
Libint2ERI::Libint2ERI              :      0.000u      0.000s      0.001w      1 calls

**************************************************************************************

Host: vlogin2.ccqc.uga.edu

Timers On : Sun Jan  5 15:55:17 2025
Timers Off: Sun Jan  5 15:55:17 2025

Wall Time:        0.67 seconds

                                                       Time (seconds)
Module                                       User      System        Wall        Calls
Libint2ERI::Libint2ERI              :      0.000u      0.000s      0.000w      1 calls

--------------------------------------------------------------------------------------
Libint2ERI::Libint2ERI              :      0.000u      0.000s      0.000w      1 calls

**************************************************************************************

Host: vlogin2.ccqc.uga.edu

Timers On : Sun Jan  5 16:22:08 2025
Timers Off: Sun Jan  5 16:22:09 2025

Wall Time:        1.00 seconds

                                                       Time (seconds)
Module                                       User      System        Wall        Calls
Libint2ERI::Libint2ERI              :      0.000u      0.000s      0.000w      1 calls

--------------------------------------------------------------------------------------
Libint2ERI::Libint2ERI              :      0.000u      0.000s      0.000w      1 calls

**************************************************************************************

Host: vlogin2.ccqc.uga.edu

Timers On : Sun Jan  5 16:30:01 2025
Timers Off: Sun Jan  5 16:30:02 2025

Wall Time:        1.11 seconds

                                                       Time (seconds)
Module                                       User      System        Wall        Calls
Libint2ERI::Libint2ERI              :      0.000u      0.000s      0.000w      1 calls

--------------------------------------------------------------------------------------
Libint2ERI::Libint2ERI              :      0.000u      0.000s      0.000w      1 calls

**************************************************************************************

Host: vlogin2.ccqc.uga.edu

Timers On : Sun Jan  5 16:30:41 2025
Timers Off: Sun Jan  5 16:30:42 2025

Wall Time:        0.90 seconds

                                                       Time (seconds)
Module                                       User      System        Wall        Calls
Libint2ERI::Libint2ERI              :      0.000u      0.000s      0.001w      1 calls

--------------------------------------------------------------------------------------
Libint2ERI::Libint2ERI              :      0.000u      0.000s      0.001w      1 calls

**************************************************************************************

Host: vlogin2.ccqc.uga.edu

Timers On : Sun Jan  5 16:32:27 2025
Timers Off: Sun Jan  5 16:32:28 2025

Wall Time:        1.10 seconds

                                                       Time (seconds)
Module                                       User      System        Wall        Calls
Libint2ERI::Libint2ERI              :      0.000u      0.000s      0.000w      1 calls

--------------------------------------------------------------------------------------
Libint2ERI::Libint2ERI              :      0.000u      0.000s      0.000w      1 calls

**************************************************************************************

Host: vlogin2.ccqc.uga.edu

Timers On : Sun Jan  5 16:32:47 2025
Timers Off: Sun Jan  5 16:32:48 2025

Wall Time:        1.05 seconds

                                                       Time (seconds)
Module                                       User      System        Wall        Calls
Libint2ERI::Libint2ERI              :      0.000u      0.000s      0.001w      1 calls

--------------------------------------------------------------------------------------
Libint2ERI::Libint2ERI              :      0.000u      0.000s      0.001w      1 calls

**************************************************************************************

Host: vlogin2.ccqc.uga.edu

Timers On : Sun Jan  5 16:43:35 2025
Timers Off: Sun Jan  5 16:43:36 2025

Wall Time:        1.23 seconds

                                                       Time (seconds)
Module                                       User      System        Wall        Calls
Libint2ERI::Libint2ERI              :      0.000u      0.000s      0.000w      1 calls

--------------------------------------------------------------------------------------
Libint2ERI::Libint2ERI              :      0.000u      0.000s      0.000w      1 calls

**************************************************************************************

Host: vlogin2.ccqc.uga.edu

Timers On : Sun Jan  5 16:44:17 2025
Timers Off: Sun Jan  5 16:44:18 2025

Wall Time:        1.03 seconds

                                                       Time (seconds)
Module                                       User      System        Wall        Calls
Libint2ERI::Libint2ERI              :      0.000u      0.000s      0.000w      1 calls

--------------------------------------------------------------------------------------
Libint2ERI::Libint2ERI              :      0.000u      0.000s      0.000w      1 calls

**************************************************************************************

Host: vlogin2.ccqc.uga.edu

Timers On : Sun Jan  5 16:44:40 2025
Timers Off: Sun Jan  5 16:44:41 2025

Wall Time:        1.01 seconds

                                                       Time (seconds)
Module                                       User      System        Wall        Calls
Libint2ERI::Libint2ERI              :      0.000u      0.000s      0.000w      1 calls

--------------------------------------------------------------------------------------
Libint2ERI::Libint2ERI              :      0.000u      0.000s      0.000w      1 calls

**************************************************************************************

Host: vlogin2.ccqc.uga.edu

Timers On : Sun Jan  5 16:48:45 2025
Timers Off: Sun Jan  5 16:48:46 2025

Wall Time:        1.26 seconds

                                                       Time (seconds)
Module                                       User      System        Wall        Calls
Libint2ERI::Libint2ERI              :      0.000u      0.000s      0.001w      1 calls

--------------------------------------------------------------------------------------
Libint2ERI::Libint2ERI              :      0.000u      0.000s      0.001w      1 calls

**************************************************************************************

Host: vlogin2.ccqc.uga.edu

Timers On : Sun Jan  5 16:50:36 2025
Timers Off: Sun Jan  5 16:50:38 2025

Wall Time:        1.54 seconds

                                                       Time (seconds)
Module                                       User      System        Wall        Calls

--------------------------------------------------------------------------------------

**************************************************************************************

Host: vlogin2.ccqc.uga.edu

Timers On : Sun Jan  5 16:50:55 2025
Timers Off: Sun Jan  5 16:50:56 2025

Wall Time:        1.00 seconds

                                                       Time (seconds)
Module                                       User      System        Wall        Calls
Libint2ERI::Libint2ERI              :      0.000u      0.000s      0.000w      1 calls

--------------------------------------------------------------------------------------
Libint2ERI::Libint2ERI              :      0.000u      0.000s      0.000w      1 calls

**************************************************************************************

Host: vlogin2.ccqc.uga.edu

Timers On : Sun Jan  5 16:51:38 2025
Timers Off: Sun Jan  5 16:51:39 2025

Wall Time:        0.97 seconds

                                                       Time (seconds)
Module                                       User      System        Wall        Calls
Libint2ERI::Libint2ERI              :      0.000u      0.000s      0.001w      1 calls

--------------------------------------------------------------------------------------
Libint2ERI::Libint2ERI              :      0.000u      0.000s      0.001w      1 calls

**************************************************************************************

Host: vlogin2.ccqc.uga.edu

Timers On : Sun Jan  5 16:52:54 2025
Timers Off: Sun Jan  5 16:52:55 2025

Wall Time:        0.98 seconds

                                                       Time (seconds)
Module                                       User      System        Wall        Calls
Libint2ERI::Libint2ERI              :      0.000u      0.000s      0.001w      1 calls

--------------------------------------------------------------------------------------
Libint2ERI::Libint2ERI              :      0.000u      0.000s      0.001w      1 calls

**************************************************************************************

Host: vlogin2.ccqc.uga.edu

Timers On : Sun Jan  5 16:53:17 2025
Timers Off: Sun Jan  5 16:53:18 2025

Wall Time:        1.12 seconds

                                                       Time (seconds)
Module                                       User      System        Wall        Calls
Libint2ERI::Libint2ERI              :      0.000u      0.000s      0.001w      1 calls

--------------------------------------------------------------------------------------
Libint2ERI::Libint2ERI              :      0.000u      0.000s      0.001w      1 calls

**************************************************************************************

Host: vlogin2.ccqc.uga.edu

Timers On : Sun Jan  5 16:55:19 2025
Timers Off: Sun Jan  5 16:55:20 2025

Wall Time:        1.22 seconds

                                                       Time (seconds)
Module                                       User      System        Wall        Calls
Libint2ERI::Libint2ERI              :      0.000u      0.000s      0.000w      1 calls

--------------------------------------------------------------------------------------
Libint2ERI::Libint2ERI              :      0.000u      0.000s      0.000w      1 calls

**************************************************************************************

Host: vlogin2.ccqc.uga.edu

Timers On : Sun Jan  5 16:55:36 2025
Timers Off: Sun Jan  5 16:55:37 2025

Wall Time:        1.02 seconds

                                                       Time (seconds)
Module                                       User      System        Wall        Calls
Libint2ERI::Libint2ERI              :      0.000u      0.000s      0.001w      1 calls

--------------------------------------------------------------------------------------
Libint2ERI::Libint2ERI              :      0.000u      0.000s      0.001w      1 calls

**************************************************************************************

Host: vlogin2.ccqc.uga.edu

Timers On : Sun Jan  5 17:16:05 2025
Timers Off: Sun Jan  5 17:16:06 2025

Wall Time:        1.42 seconds

                                                       Time (seconds)
Module                                       User      System        Wall        Calls
Libint2ERI::Libint2ERI              :      0.000u      0.000s      0.001w      1 calls

--------------------------------------------------------------------------------------
Libint2ERI::Libint2ERI              :      0.000u      0.000s      0.001w      1 calls

**************************************************************************************

Host: vlogin2.ccqc.uga.edu

Timers On : Sun Jan  5 17:16:44 2025
Timers Off: Sun Jan  5 17:16:45 2025

Wall Time:        0.87 seconds

                                                       Time (seconds)
Module                                       User      System        Wall        Calls
Libint2ERI::Libint2ERI              :      0.000u      0.000s      0.001w      1 calls

--------------------------------------------------------------------------------------
Libint2ERI::Libint2ERI              :      0.000u      0.000s      0.001w      1 calls

**************************************************************************************

Host: vlogin2.ccqc.uga.edu

Timers On : Sun Jan  5 17:17:01 2025
Timers Off: Sun Jan  5 17:17:02 2025

Wall Time:        0.90 seconds

                                                       Time (seconds)
Module                                       User      System        Wall        Calls
Libint2ERI::Libint2ERI              :      0.000u      0.000s      0.001w      1 calls

--------------------------------------------------------------------------------------
Libint2ERI::Libint2ERI              :      0.000u      0.000s      0.001w      1 calls

**************************************************************************************

Host: vlogin2.ccqc.uga.edu

Timers On : Sun Jan  5 17:22:59 2025
Timers Off: Sun Jan  5 17:23:01 2025

Wall Time:        1.30 seconds

                                                       Time (seconds)
Module                                       User      System        Wall        Calls
Libint2ERI::Libint2ERI              :      0.000u      0.000s      0.001w      1 calls

--------------------------------------------------------------------------------------
Libint2ERI::Libint2ERI              :      0.000u      0.000s      0.001w      1 calls

**************************************************************************************

Host: vlogin2.ccqc.uga.edu

Timers On : Sun Jan  5 17:26:41 2025
Timers Off: Sun Jan  5 17:26:42 2025

Wall Time:        0.96 seconds

                                                       Time (seconds)
Module                                       User      System        Wall        Calls
Libint2ERI::Libint2ERI              :      0.000u      0.000s      0.001w      1 calls

--------------------------------------------------------------------------------------
Libint2ERI::Libint2ERI              :      0.000u      0.000s      0.001w      1 calls

**************************************************************************************

Host: vlogin2.ccqc.uga.edu

Timers On : Sun Jan  5 17:43:55 2025
Timers Off: Sun Jan  5 17:43:57 2025

Wall Time:        1.17 seconds

                                                       Time (seconds)
Module                                       User      System        Wall        Calls
Libint2ERI::Libint2ERI              :      0.000u      0.000s      0.001w      1 calls

--------------------------------------------------------------------------------------
Libint2ERI::Libint2ERI              :      0.000u      0.000s      0.001w      1 calls

**************************************************************************************

Host: vlogin2.ccqc.uga.edu

Timers On : Sun Jan  5 17:44:42 2025
Timers Off: Sun Jan  5 17:44:43 2025

Wall Time:        0.88 seconds

                                                       Time (seconds)
Module                                       User      System        Wall        Calls
Libint2ERI::Libint2ERI              :      0.000u      0.000s      0.001w      1 calls

--------------------------------------------------------------------------------------
Libint2ERI::Libint2ERI              :      0.000u      0.000s      0.001w      1 calls

**************************************************************************************

Host: vlogin2.ccqc.uga.edu

Timers On : Sun Jan  5 17:45:44 2025
Timers Off: Sun Jan  5 17:45:45 2025

Wall Time:        0.75 seconds

                                                       Time (seconds)
Module                                       User      System        Wall        Calls
Libint2ERI::Libint2ERI              :      0.000u      0.000s      0.000w      1 calls

--------------------------------------------------------------------------------------
Libint2ERI::Libint2ERI              :      0.000u      0.000s      0.000w      1 calls

**************************************************************************************

Host: vlogin2.ccqc.uga.edu

Timers On : Sun Jan  5 17:58:32 2025
Timers Off: Sun Jan  5 17:58:33 2025

Wall Time:        1.01 seconds

                                                       Time (seconds)
Module                                       User      System        Wall        Calls
Libint2ERI::Libint2ERI              :      0.000u      0.000s      0.000w      1 calls

--------------------------------------------------------------------------------------
Libint2ERI::Libint2ERI              :      0.000u      0.000s      0.000w      1 calls

**************************************************************************************

Host: vlogin2.ccqc.uga.edu

Timers On : Sun Jan  5 18:01:11 2025
Timers Off: Sun Jan  5 18:01:12 2025

Wall Time:        1.39 seconds

                                                       Time (seconds)
Module                                       User      System        Wall        Calls
Libint2ERI::Libint2ERI              :      0.000u      0.000s      0.001w      1 calls

--------------------------------------------------------------------------------------
Libint2ERI::Libint2ERI              :      0.000u      0.000s      0.001w      1 calls

**************************************************************************************

Host: vlogin2.ccqc.uga.edu

Timers On : Sun Jan  5 18:02:00 2025
Timers Off: Sun Jan  5 18:02:01 2025

Wall Time:        0.68 seconds

                                                       Time (seconds)
Module                                       User      System        Wall        Calls
Libint2ERI::Libint2ERI              :      0.017u      0.000s      0.001w      1 calls

--------------------------------------------------------------------------------------
Libint2ERI::Libint2ERI              :      0.017u      0.000s      0.001w      1 calls

**************************************************************************************

Host: vlogin2.ccqc.uga.edu

Timers On : Sun Jan 12 13:11:13 2025
Timers Off: Sun Jan 12 13:11:14 2025

Wall Time:        0.84 seconds

                                                       Time (seconds)
Module                                       User      System        Wall        Calls
Libint2ERI::Libint2ERI              :      0.000u      0.000s      0.001w      1 calls

--------------------------------------------------------------------------------------
Libint2ERI::Libint2ERI              :      0.000u      0.000s      0.001w      1 calls

**************************************************************************************

Host: vlogin2.ccqc.uga.edu

Timers On : Sun Jan 12 13:20:30 2025
Timers Off: Sun Jan 12 13:20:31 2025

Wall Time:        0.94 seconds

                                                       Time (seconds)
Module                                       User      System        Wall        Calls
Libint2ERI::Libint2ERI              :      0.000u      0.000s      0.000w      1 calls

--------------------------------------------------------------------------------------
Libint2ERI::Libint2ERI              :      0.000u      0.000s      0.000w      1 calls

**************************************************************************************

Host: vlogin2.ccqc.uga.edu

Timers On : Sun Jan 12 13:27:03 2025
Timers Off: Sun Jan 12 13:27:04 2025

Wall Time:        0.97 seconds

                                                       Time (seconds)
Module                                       User      System        Wall        Calls
Libint2ERI::Libint2ERI              :      0.000u      0.000s      0.000w      1 calls

--------------------------------------------------------------------------------------
Libint2ERI::Libint2ERI              :      0.000u      0.000s      0.000w      1 calls

**************************************************************************************

Host: vlogin2.ccqc.uga.edu

Timers On : Sun Jan 12 13:27:35 2025
Timers Off: Sun Jan 12 13:27:36 2025

Wall Time:        0.68 seconds

                                                       Time (seconds)
Module                                       User      System        Wall        Calls
Libint2ERI::Libint2ERI              :      0.000u      0.000s      0.000w      1 calls

--------------------------------------------------------------------------------------
Libint2ERI::Libint2ERI              :      0.000u      0.000s      0.000w      1 calls

**************************************************************************************

Host: vlogin2.ccqc.uga.edu

Timers On : Sun Jan 12 13:27:47 2025
Timers Off: Sun Jan 12 13:27:48 2025

Wall Time:        0.68 seconds

                                                       Time (seconds)
Module                                       User      System        Wall        Calls
Libint2ERI::Libint2ERI              :      0.000u      0.000s      0.000w      1 calls

--------------------------------------------------------------------------------------
Libint2ERI::Libint2ERI              :      0.000u      0.000s      0.000w      1 calls

**************************************************************************************

Host: vlogin2.ccqc.uga.edu

Timers On : Sun Jan 12 13:28:31 2025
Timers Off: Sun Jan 12 13:28:32 2025

Wall Time:        1.16 seconds

                                                       Time (seconds)
Module                                       User      System        Wall        Calls
Libint2ERI::Libint2ERI              :      0.000u      0.000s      0.001w      1 calls

--------------------------------------------------------------------------------------
Libint2ERI::Libint2ERI              :      0.000u      0.000s      0.001w      1 calls

**************************************************************************************

Host: vlogin2.ccqc.uga.edu

Timers On : Sun Jan 12 13:35:40 2025
Timers Off: Sun Jan 12 13:35:41 2025

Wall Time:        0.95 seconds

                                                       Time (seconds)
Module                                       User      System        Wall        Calls
Libint2ERI::Libint2ERI              :      0.000u      0.000s      0.001w      1 calls

--------------------------------------------------------------------------------------
Libint2ERI::Libint2ERI              :      0.000u      0.000s      0.001w      1 calls

**************************************************************************************

Host: vlogin2.ccqc.uga.edu

Timers On : Sun Jan 12 13:36:22 2025
Timers Off: Sun Jan 12 13:36:23 2025

Wall Time:        0.63 seconds

                                                       Time (seconds)
Module                                       User      System        Wall        Calls
Libint2ERI::Libint2ERI              :      0.000u      0.000s      0.001w      1 calls

--------------------------------------------------------------------------------------
Libint2ERI::Libint2ERI              :      0.000u      0.000s      0.001w      1 calls

**************************************************************************************

Host: vlogin2.ccqc.uga.edu

Timers On : Sun Jan 12 13:37:32 2025
Timers Off: Sun Jan 12 13:37:33 2025

Wall Time:        0.75 seconds

                                                       Time (seconds)
Module                                       User      System        Wall        Calls
Libint2ERI::Libint2ERI              :      0.000u      0.000s      0.001w      1 calls

--------------------------------------------------------------------------------------
Libint2ERI::Libint2ERI              :      0.000u      0.000s      0.001w      1 calls

**************************************************************************************

Host: vlogin2.ccqc.uga.edu

Timers On : Sun Jan 12 13:39:03 2025
Timers Off: Sun Jan 12 13:39:04 2025

Wall Time:        0.92 seconds

                                                       Time (seconds)
Module                                       User      System        Wall        Calls
Libint2ERI::Libint2ERI              :      0.000u      0.000s      0.000w      1 calls

--------------------------------------------------------------------------------------
Libint2ERI::Libint2ERI              :      0.000u      0.000s      0.000w      1 calls

**************************************************************************************

Host: vlogin2.ccqc.uga.edu

Timers On : Sun Jan 12 13:41:53 2025
Timers Off: Sun Jan 12 13:41:54 2025

Wall Time:        1.03 seconds

                                                       Time (seconds)
Module                                       User      System        Wall        Calls
Libint2ERI::Libint2ERI              :      0.000u      0.000s      0.001w      1 calls

--------------------------------------------------------------------------------------
Libint2ERI::Libint2ERI              :      0.000u      0.000s      0.001w      1 calls

**************************************************************************************

Host: vlogin2.ccqc.uga.edu

Timers On : Sun Jan 12 13:43:27 2025
Timers Off: Sun Jan 12 13:43:28 2025

Wall Time:        0.78 seconds

                                                       Time (seconds)
Module                                       User      System        Wall        Calls
Libint2ERI::Libint2ERI              :      0.000u      0.000s      0.000w      1 calls

--------------------------------------------------------------------------------------
Libint2ERI::Libint2ERI              :      0.000u      0.000s      0.000w      1 calls

**************************************************************************************

Host: vlogin2.ccqc.uga.edu

Timers On : Sun Jan 12 13:44:05 2025
Timers Off: Sun Jan 12 13:44:06 2025

Wall Time:        0.71 seconds

                                                       Time (seconds)
Module                                       User      System        Wall        Calls
Libint2ERI::Libint2ERI              :      0.000u      0.000s      0.000w      1 calls

--------------------------------------------------------------------------------------
Libint2ERI::Libint2ERI              :      0.000u      0.000s      0.000w      1 calls

**************************************************************************************

Host: vlogin2.ccqc.uga.edu

Timers On : Sun Jan 12 13:44:50 2025
Timers Off: Sun Jan 12 13:44:51 2025

Wall Time:        0.76 seconds

                                                       Time (seconds)
Module                                       User      System        Wall        Calls
Libint2ERI::Libint2ERI              :      0.000u      0.000s      0.000w      1 calls

--------------------------------------------------------------------------------------
Libint2ERI::Libint2ERI              :      0.000u      0.000s      0.000w      1 calls

**************************************************************************************

Host: vlogin2.ccqc.uga.edu

Timers On : Sun Jan 12 13:45:33 2025
Timers Off: Sun Jan 12 13:45:33 2025

Wall Time:        0.67 seconds

                                                       Time (seconds)
Module                                       User      System        Wall        Calls
Libint2ERI::Libint2ERI              :      0.000u      0.000s      0.000w      1 calls

--------------------------------------------------------------------------------------
Libint2ERI::Libint2ERI              :      0.000u      0.000s      0.000w      1 calls

**************************************************************************************

Host: vlogin2.ccqc.uga.edu

Timers On : Sun Jan 12 13:52:32 2025
Timers Off: Sun Jan 12 13:52:33 2025

Wall Time:        0.89 seconds

                                                       Time (seconds)
Module                                       User      System        Wall        Calls
Libint2ERI::Libint2ERI              :      0.000u      0.000s      0.000w      1 calls

--------------------------------------------------------------------------------------
Libint2ERI::Libint2ERI              :      0.000u      0.000s      0.000w      1 calls

**************************************************************************************

Host: vlogin2.ccqc.uga.edu

Timers On : Sun Jan 12 13:55:15 2025
Timers Off: Sun Jan 12 13:55:16 2025

Wall Time:        0.94 seconds

                                                       Time (seconds)
Module                                       User      System        Wall        Calls
Libint2ERI::Libint2ERI              :      0.000u      0.000s      0.001w      1 calls

--------------------------------------------------------------------------------------
Libint2ERI::Libint2ERI              :      0.000u      0.000s      0.001w      1 calls

**************************************************************************************

Host: vlogin2.ccqc.uga.edu

Timers On : Sun Jan 12 14:01:46 2025
Timers Off: Sun Jan 12 14:01:46 2025

Wall Time:        0.63 seconds

                                                       Time (seconds)
Module                                       User      System        Wall        Calls
Libint2ERI::Libint2ERI              :      0.000u      0.000s      0.000w      1 calls

--------------------------------------------------------------------------------------
Libint2ERI::Libint2ERI              :      0.000u      0.000s      0.000w      1 calls

**************************************************************************************

Host: vlogin2.ccqc.uga.edu

Timers On : Sun Jan 12 14:13:25 2025
Timers Off: Sun Jan 12 14:13:26 2025

Wall Time:        1.03 seconds

                                                       Time (seconds)
Module                                       User      System        Wall        Calls
Libint2ERI::Libint2ERI              :      0.000u      0.000s      0.000w      1 calls

--------------------------------------------------------------------------------------
Libint2ERI::Libint2ERI              :      0.000u      0.000s      0.000w      1 calls

**************************************************************************************

Host: vlogin2.ccqc.uga.edu

Timers On : Sun Jan 12 14:14:03 2025
Timers Off: Sun Jan 12 14:14:04 2025

Wall Time:        0.69 seconds

                                                       Time (seconds)
Module                                       User      System        Wall        Calls
Libint2ERI::Libint2ERI              :      0.000u      0.000s      0.000w      1 calls

--------------------------------------------------------------------------------------
Libint2ERI::Libint2ERI              :      0.000u      0.000s      0.000w      1 calls

**************************************************************************************

Host: vlogin2.ccqc.uga.edu

Timers On : Sun Jan 12 14:14:35 2025
Timers Off: Sun Jan 12 14:14:36 2025

Wall Time:        0.76 seconds

                                                       Time (seconds)
Module                                       User      System        Wall        Calls
Libint2ERI::Libint2ERI              :      0.000u      0.000s      0.000w      1 calls

--------------------------------------------------------------------------------------
Libint2ERI::Libint2ERI              :      0.000u      0.000s      0.000w      1 calls

**************************************************************************************

Host: vlogin2.ccqc.uga.edu

Timers On : Sun Jan 12 14:14:54 2025
Timers Off: Sun Jan 12 14:14:55 2025

Wall Time:        0.68 seconds

                                                       Time (seconds)
Module                                       User      System        Wall        Calls
Libint2ERI::Libint2ERI              :      0.000u      0.000s      0.000w      1 calls

--------------------------------------------------------------------------------------
Libint2ERI::Libint2ERI              :      0.000u      0.000s      0.000w      1 calls

**************************************************************************************

Host: vlogin2.ccqc.uga.edu

Timers On : Sun Jan 12 14:15:18 2025
Timers Off: Sun Jan 12 14:15:19 2025

Wall Time:        0.69 seconds

                                                       Time (seconds)
Module                                       User      System        Wall        Calls
Libint2ERI::Libint2ERI              :      0.000u      0.000s      0.000w      1 calls

--------------------------------------------------------------------------------------
Libint2ERI::Libint2ERI              :      0.000u      0.000s      0.000w      1 calls

**************************************************************************************

Host: vlogin2.ccqc.uga.edu

Timers On : Sun Jan 12 14:16:54 2025
Timers Off: Sun Jan 12 14:16:55 2025

Wall Time:        0.97 seconds

                                                       Time (seconds)
Module                                       User      System        Wall        Calls
Libint2ERI::Libint2ERI              :      0.000u      0.000s      0.000w      1 calls

--------------------------------------------------------------------------------------
Libint2ERI::Libint2ERI              :      0.000u      0.000s      0.000w      1 calls

**************************************************************************************

Host: vlogin2.ccqc.uga.edu

Timers On : Sun Jan 12 14:17:09 2025
Timers Off: Sun Jan 12 14:17:10 2025

Wall Time:        0.71 seconds

                                                       Time (seconds)
Module                                       User      System        Wall        Calls
Libint2ERI::Libint2ERI              :      0.000u      0.000s      0.000w      1 calls

--------------------------------------------------------------------------------------
Libint2ERI::Libint2ERI              :      0.000u      0.000s      0.000w      1 calls

**************************************************************************************

Host: vlogin2.ccqc.uga.edu

Timers On : Sun Jan 12 14:17:25 2025
Timers Off: Sun Jan 12 14:17:26 2025

Wall Time:        0.64 seconds

                                                       Time (seconds)
Module                                       User      System        Wall        Calls
Libint2ERI::Libint2ERI              :      0.000u      0.000s      0.000w      1 calls

--------------------------------------------------------------------------------------
Libint2ERI::Libint2ERI              :      0.000u      0.000s      0.000w      1 calls

**************************************************************************************

Host: vlogin2.ccqc.uga.edu

Timers On : Sun Jan 12 14:20:27 2025
Timers Off: Sun Jan 12 14:20:28 2025

Wall Time:        0.94 seconds

                                                       Time (seconds)
Module                                       User      System        Wall        Calls
Libint2ERI::Libint2ERI              :      0.000u      0.000s      0.000w      1 calls

--------------------------------------------------------------------------------------
Libint2ERI::Libint2ERI              :      0.000u      0.000s      0.000w      1 calls

**************************************************************************************

Host: vlogin2.ccqc.uga.edu

Timers On : Sun Jan 12 14:21:54 2025
Timers Off: Sun Jan 12 14:21:55 2025

Wall Time:        0.76 seconds

                                                       Time (seconds)
Module                                       User      System        Wall        Calls
Libint2ERI::Libint2ERI              :      0.000u      0.000s      0.000w      1 calls

--------------------------------------------------------------------------------------
Libint2ERI::Libint2ERI              :      0.000u      0.000s      0.000w      1 calls

**************************************************************************************

Host: vlogin2.ccqc.uga.edu

Timers On : Sun Jan 12 14:22:37 2025
Timers Off: Sun Jan 12 14:22:38 2025

Wall Time:        0.73 seconds

                                                       Time (seconds)
Module                                       User      System        Wall        Calls
Libint2ERI::Libint2ERI              :      0.000u      0.000s      0.000w      1 calls

--------------------------------------------------------------------------------------
Libint2ERI::Libint2ERI              :      0.000u      0.000s      0.000w      1 calls

**************************************************************************************

Host: vlogin2.ccqc.uga.edu

Timers On : Sun Jan 12 14:23:41 2025
Timers Off: Sun Jan 12 14:23:42 2025

Wall Time:        0.73 seconds

                                                       Time (seconds)
Module                                       User      System        Wall        Calls
Libint2ERI::Libint2ERI              :      0.000u      0.000s      0.000w      1 calls

--------------------------------------------------------------------------------------
Libint2ERI::Libint2ERI              :      0.000u      0.000s      0.000w      1 calls

**************************************************************************************

Host: vlogin2.ccqc.uga.edu

Timers On : Sun Jan 12 14:24:45 2025
Timers Off: Sun Jan 12 14:24:47 2025

Wall Time:        1.04 seconds

                                                       Time (seconds)
Module                                       User      System        Wall        Calls
Libint2ERI::Libint2ERI              :      0.000u      0.000s      0.000w      1 calls

--------------------------------------------------------------------------------------
Libint2ERI::Libint2ERI              :      0.000u      0.000s      0.000w      1 calls

**************************************************************************************

Host: vlogin2.ccqc.uga.edu

Timers On : Sun Jan 12 14:26:03 2025
Timers Off: Sun Jan 12 14:26:04 2025

Wall Time:        1.16 seconds

                                                       Time (seconds)
Module                                       User      System        Wall        Calls

--------------------------------------------------------------------------------------

**************************************************************************************

Host: vlogin2.ccqc.uga.edu

Timers On : Sun Jan 12 14:26:36 2025
Timers Off: Sun Jan 12 14:26:37 2025

Wall Time:        0.66 seconds

                                                       Time (seconds)
Module                                       User      System        Wall        Calls

--------------------------------------------------------------------------------------

**************************************************************************************

Host: vlogin2.ccqc.uga.edu

Timers On : Sun Jan 12 14:27:46 2025
Timers Off: Sun Jan 12 14:27:47 2025

Wall Time:        1.00 seconds

                                                       Time (seconds)
Module                                       User      System        Wall        Calls

--------------------------------------------------------------------------------------

**************************************************************************************

Host: vlogin2.ccqc.uga.edu

Timers On : Sun Jan 12 14:27:55 2025
Timers Off: Sun Jan 12 14:27:56 2025

Wall Time:        0.96 seconds

                                                       Time (seconds)
Module                                       User      System        Wall        Calls
Libint2ERI::Libint2ERI              :      0.000u      0.000s      0.000w      1 calls

--------------------------------------------------------------------------------------
Libint2ERI::Libint2ERI              :      0.000u      0.000s      0.000w      1 calls

**************************************************************************************

Host: vlogin2.ccqc.uga.edu

Timers On : Sun Jan 12 14:30:21 2025
Timers Off: Sun Jan 12 14:30:22 2025

Wall Time:        1.02 seconds

                                                       Time (seconds)
Module                                       User      System        Wall        Calls
Libint2ERI::Libint2ERI              :      0.000u      0.000s      0.000w      1 calls

--------------------------------------------------------------------------------------
Libint2ERI::Libint2ERI              :      0.000u      0.000s      0.000w      1 calls

**************************************************************************************

Host: vlogin2.ccqc.uga.edu

Timers On : Sun Jan 12 14:30:48 2025
Timers Off: Sun Jan 12 14:30:49 2025

Wall Time:        0.69 seconds

                                                       Time (seconds)
Module                                       User      System        Wall        Calls
Libint2ERI::Libint2ERI              :      0.000u      0.000s      0.000w      1 calls

--------------------------------------------------------------------------------------
Libint2ERI::Libint2ERI              :      0.000u      0.000s      0.000w      1 calls

**************************************************************************************

Host: vlogin2.ccqc.uga.edu

Timers On : Sun Jan 12 14:31:59 2025
Timers Off: Sun Jan 12 14:31:59 2025

Wall Time:        0.79 seconds

                                                       Time (seconds)
Module                                       User      System        Wall        Calls
Libint2ERI::Libint2ERI              :      0.000u      0.000s      0.000w      1 calls

--------------------------------------------------------------------------------------
Libint2ERI::Libint2ERI              :      0.000u      0.000s      0.000w      1 calls

**************************************************************************************

Host: vlogin2.ccqc.uga.edu

Timers On : Sun Jan 12 14:32:16 2025
Timers Off: Sun Jan 12 14:32:17 2025

Wall Time:        0.99 seconds

                                                       Time (seconds)
Module                                       User      System        Wall        Calls
Libint2ERI::Libint2ERI              :      0.000u      0.000s      0.000w      1 calls

--------------------------------------------------------------------------------------
Libint2ERI::Libint2ERI              :      0.000u      0.000s      0.000w      1 calls

**************************************************************************************

Host: vlogin2.ccqc.uga.edu

Timers On : Sun Jan 12 14:35:32 2025
Timers Off: Sun Jan 12 14:35:33 2025

Wall Time:        0.97 seconds

                                                       Time (seconds)
Module                                       User      System        Wall        Calls
Libint2ERI::Libint2ERI              :      0.000u      0.000s      0.000w      1 calls

--------------------------------------------------------------------------------------
Libint2ERI::Libint2ERI              :      0.000u      0.000s      0.000w      1 calls

**************************************************************************************

Host: vlogin2.ccqc.uga.edu

Timers On : Sun Jan 12 14:37:26 2025
Timers Off: Sun Jan 12 14:37:26 2025

Wall Time:        0.95 seconds

                                                       Time (seconds)
Module                                       User      System        Wall        Calls
Libint2ERI::Libint2ERI              :      0.000u      0.000s      0.000w      1 calls

--------------------------------------------------------------------------------------
Libint2ERI::Libint2ERI              :      0.000u      0.000s      0.000w      1 calls

**************************************************************************************

Host: vlogin2.ccqc.uga.edu

Timers On : Sun Jan 12 14:38:10 2025
Timers Off: Sun Jan 12 14:38:11 2025

Wall Time:        0.70 seconds

                                                       Time (seconds)
Module                                       User      System        Wall        Calls
Libint2ERI::Libint2ERI              :      0.000u      0.000s      0.000w      1 calls

--------------------------------------------------------------------------------------
Libint2ERI::Libint2ERI              :      0.000u      0.000s      0.000w      1 calls

**************************************************************************************

Host: vlogin2.ccqc.uga.edu

Timers On : Sun Jan 12 14:42:35 2025
Timers Off: Sun Jan 12 14:42:36 2025

Wall Time:        1.01 seconds

                                                       Time (seconds)
Module                                       User      System        Wall        Calls
Libint2ERI::Libint2ERI              :      0.000u      0.000s      0.000w      1 calls

--------------------------------------------------------------------------------------
Libint2ERI::Libint2ERI              :      0.000u      0.000s      0.000w      1 calls

**************************************************************************************

Host: vlogin2.ccqc.uga.edu

Timers On : Sun Jan 12 14:43:54 2025
Timers Off: Sun Jan 12 14:43:55 2025

Wall Time:        0.94 seconds

                                                       Time (seconds)
Module                                       User      System        Wall        Calls
Libint2ERI::Libint2ERI              :      0.000u      0.000s      0.000w      1 calls

--------------------------------------------------------------------------------------
Libint2ERI::Libint2ERI              :      0.000u      0.000s      0.000w      1 calls

**************************************************************************************

Host: vlogin2.ccqc.uga.edu

Timers On : Sun Jan 12 15:06:21 2025
Timers Off: Sun Jan 12 15:06:22 2025

Wall Time:        1.02 seconds

                                                       Time (seconds)
Module                                       User      System        Wall        Calls
Libint2ERI::Libint2ERI              :      0.000u      0.000s      0.000w      1 calls

--------------------------------------------------------------------------------------
Libint2ERI::Libint2ERI              :      0.000u      0.000s      0.000w      1 calls

**************************************************************************************

Host: vlogin2.ccqc.uga.edu

Timers On : Sun Jan 12 15:07:16 2025
Timers Off: Sun Jan 12 15:07:17 2025

Wall Time:        0.68 seconds

                                                       Time (seconds)
Module                                       User      System        Wall        Calls
Libint2ERI::Libint2ERI              :      0.000u      0.000s      0.000w      1 calls

--------------------------------------------------------------------------------------
Libint2ERI::Libint2ERI              :      0.000u      0.000s      0.000w      1 calls

**************************************************************************************

Host: vlogin2.ccqc.uga.edu

Timers On : Sun Jan 12 15:17:28 2025
Timers Off: Sun Jan 12 15:17:29 2025

Wall Time:        1.00 seconds

                                                       Time (seconds)
Module                                       User      System        Wall        Calls
Libint2ERI::Libint2ERI              :      0.017u      0.000s      0.000w      1 calls

--------------------------------------------------------------------------------------
Libint2ERI::Libint2ERI              :      0.017u      0.000s      0.000w      1 calls

**************************************************************************************

Host: vlogin2.ccqc.uga.edu

Timers On : Sun Jan 12 15:18:29 2025
Timers Off: Sun Jan 12 15:18:30 2025

Wall Time:        0.78 seconds

                                                       Time (seconds)
Module                                       User      System        Wall        Calls
Libint2ERI::Libint2ERI              :      0.000u      0.000s      0.000w      1 calls

--------------------------------------------------------------------------------------
Libint2ERI::Libint2ERI              :      0.000u      0.000s      0.000w      1 calls

**************************************************************************************

Host: vlogin2.ccqc.uga.edu

Timers On : Sun Jan 12 15:20:29 2025
Timers Off: Sun Jan 12 15:20:30 2025

Wall Time:        0.98 seconds

                                                       Time (seconds)
Module                                       User      System        Wall        Calls
Libint2ERI::Libint2ERI              :      0.000u      0.000s      0.000w      1 calls

--------------------------------------------------------------------------------------
Libint2ERI::Libint2ERI              :      0.000u      0.000s      0.000w      1 calls

**************************************************************************************

Host: vlogin2.ccqc.uga.edu

Timers On : Sun Jan 12 15:21:01 2025
Timers Off: Sun Jan 12 15:21:01 2025

Wall Time:        0.63 seconds

                                                       Time (seconds)
Module                                       User      System        Wall        Calls
Libint2ERI::Libint2ERI              :      0.000u      0.000s      0.000w      1 calls

--------------------------------------------------------------------------------------
Libint2ERI::Libint2ERI              :      0.000u      0.000s      0.000w      1 calls

**************************************************************************************

Host: vlogin2.ccqc.uga.edu

Timers On : Sun Jan 12 15:25:38 2025
Timers Off: Sun Jan 12 15:25:38 2025

Wall Time:        0.64 seconds

                                                       Time (seconds)
Module                                       User      System        Wall        Calls
Libint2ERI::Libint2ERI              :      0.000u      0.000s      0.000w      1 calls

--------------------------------------------------------------------------------------
Libint2ERI::Libint2ERI              :      0.000u      0.000s      0.000w      1 calls

**************************************************************************************

Host: vlogin2.ccqc.uga.edu

Timers On : Sun Jan 12 15:26:18 2025
Timers Off: Sun Jan 12 15:26:19 2025

Wall Time:        0.75 seconds

                                                       Time (seconds)
Module                                       User      System        Wall        Calls
Libint2ERI::Libint2ERI              :      0.000u      0.000s      0.000w      1 calls

--------------------------------------------------------------------------------------
Libint2ERI::Libint2ERI              :      0.000u      0.000s      0.000w      1 calls

**************************************************************************************

Host: vlogin2.ccqc.uga.edu

Timers On : Sun Jan 12 15:31:16 2025
Timers Off: Sun Jan 12 15:31:17 2025

Wall Time:        0.87 seconds

                                                       Time (seconds)
Module                                       User      System        Wall        Calls

--------------------------------------------------------------------------------------

**************************************************************************************

Host: vlogin2.ccqc.uga.edu

Timers On : Sun Jan 12 15:31:26 2025
Timers Off: Sun Jan 12 15:31:27 2025

Wall Time:        0.67 seconds

                                                       Time (seconds)
Module                                       User      System        Wall        Calls
Libint2ERI::Libint2ERI              :      0.000u      0.000s      0.000w      1 calls

--------------------------------------------------------------------------------------
Libint2ERI::Libint2ERI              :      0.000u      0.000s      0.000w      1 calls

**************************************************************************************

Host: vlogin2.ccqc.uga.edu

Timers On : Sun Jan 12 15:31:48 2025
Timers Off: Sun Jan 12 15:31:48 2025

Wall Time:        0.67 seconds

                                                       Time (seconds)
Module                                       User      System        Wall        Calls
Libint2ERI::Libint2ERI              :      0.000u      0.000s      0.000w      1 calls

--------------------------------------------------------------------------------------
Libint2ERI::Libint2ERI              :      0.000u      0.000s      0.000w      1 calls

**************************************************************************************

Host: vlogin2.ccqc.uga.edu

Timers On : Sun Jan 12 15:32:05 2025
Timers Off: Sun Jan 12 15:32:05 2025

Wall Time:        0.69 seconds

                                                       Time (seconds)
Module                                       User      System        Wall        Calls
Libint2ERI::Libint2ERI              :      0.000u      0.000s      0.000w      1 calls

--------------------------------------------------------------------------------------
Libint2ERI::Libint2ERI              :      0.000u      0.000s      0.000w      1 calls

**************************************************************************************

Host: vlogin2.ccqc.uga.edu

Timers On : Sun Jan 12 15:32:26 2025
Timers Off: Sun Jan 12 15:32:27 2025

Wall Time:        0.79 seconds

                                                       Time (seconds)
Module                                       User      System        Wall        Calls
Libint2ERI::Libint2ERI              :      0.000u      0.000s      0.000w      1 calls

--------------------------------------------------------------------------------------
Libint2ERI::Libint2ERI              :      0.000u      0.000s      0.000w      1 calls

**************************************************************************************

Host: vlogin2.ccqc.uga.edu

Timers On : Sun Jan 12 15:33:15 2025
Timers Off: Sun Jan 12 15:33:16 2025

Wall Time:        0.70 seconds

                                                       Time (seconds)
Module                                       User      System        Wall        Calls
Libint2ERI::Libint2ERI              :      0.000u      0.000s      0.000w      1 calls

--------------------------------------------------------------------------------------
Libint2ERI::Libint2ERI              :      0.000u      0.000s      0.000w      1 calls

**************************************************************************************

Host: vlogin2.ccqc.uga.edu

Timers On : Sun Jan 12 15:33:26 2025
Timers Off: Sun Jan 12 15:33:27 2025

Wall Time:        0.77 seconds

                                                       Time (seconds)
Module                                       User      System        Wall        Calls
Libint2ERI::Libint2ERI              :      0.000u      0.000s      0.000w      1 calls

--------------------------------------------------------------------------------------
Libint2ERI::Libint2ERI              :      0.000u      0.000s      0.000w      1 calls

**************************************************************************************

Host: vlogin2.ccqc.uga.edu

Timers On : Sun Jan 12 15:33:35 2025
Timers Off: Sun Jan 12 15:33:36 2025

Wall Time:        0.67 seconds

                                                       Time (seconds)
Module                                       User      System        Wall        Calls
Libint2ERI::Libint2ERI              :      0.000u      0.000s      0.000w      1 calls

--------------------------------------------------------------------------------------
Libint2ERI::Libint2ERI              :      0.000u      0.000s      0.000w      1 calls

**************************************************************************************

Host: vlogin2.ccqc.uga.edu

Timers On : Sun Jan 12 15:34:14 2025
Timers Off: Sun Jan 12 15:34:14 2025

Wall Time:        0.72 seconds

                                                       Time (seconds)
Module                                       User      System        Wall        Calls
Libint2ERI::Libint2ERI              :      0.000u      0.000s      0.001w      1 calls

--------------------------------------------------------------------------------------
Libint2ERI::Libint2ERI              :      0.000u      0.000s      0.001w      1 calls

**************************************************************************************

Host: vlogin2.ccqc.uga.edu

Timers On : Sun Jan 12 17:01:35 2025
Timers Off: Sun Jan 12 17:01:36 2025

Wall Time:        0.98 seconds

                                                       Time (seconds)
Module                                       User      System        Wall        Calls
Libint2ERI::Libint2ERI              :      0.000u      0.000s      0.000w      1 calls

--------------------------------------------------------------------------------------
Libint2ERI::Libint2ERI              :      0.000u      0.000s      0.000w      1 calls

**************************************************************************************

Host: vlogin2.ccqc.uga.edu

Timers On : Sun Jan 12 17:04:09 2025
Timers Off: Sun Jan 12 17:04:10 2025

Wall Time:        0.97 seconds

                                                       Time (seconds)
Module                                       User      System        Wall        Calls
Libint2ERI::Libint2ERI              :      0.000u      0.000s      0.001w      1 calls

--------------------------------------------------------------------------------------
Libint2ERI::Libint2ERI              :      0.000u      0.000s      0.001w      1 calls

**************************************************************************************

Host: vlogin2.ccqc.uga.edu

Timers On : Sun Jan 12 17:06:52 2025
Timers Off: Sun Jan 12 17:06:53 2025

Wall Time:        1.02 seconds

                                                       Time (seconds)
Module                                       User      System        Wall        Calls
Libint2ERI::Libint2ERI              :      0.000u      0.000s      0.000w      1 calls

--------------------------------------------------------------------------------------
Libint2ERI::Libint2ERI              :      0.000u      0.000s      0.000w      1 calls

**************************************************************************************

Host: vlogin2.ccqc.uga.edu

Timers On : Sun Jan 12 17:11:31 2025
Timers Off: Sun Jan 12 17:11:32 2025

Wall Time:        1.03 seconds

                                                       Time (seconds)
Module                                       User      System        Wall        Calls
Libint2ERI::Libint2ERI              :      0.017u      0.000s      0.001w      1 calls

--------------------------------------------------------------------------------------
Libint2ERI::Libint2ERI              :      0.017u      0.000s      0.001w      1 calls

**************************************************************************************

Host: vlogin2.ccqc.uga.edu

Timers On : Sun Jan 12 17:11:47 2025
Timers Off: Sun Jan 12 17:11:48 2025

Wall Time:        0.66 seconds

                                                       Time (seconds)
Module                                       User      System        Wall        Calls
Libint2ERI::Libint2ERI              :      0.000u      0.000s      0.000w      1 calls

--------------------------------------------------------------------------------------
Libint2ERI::Libint2ERI              :      0.000u      0.000s      0.000w      1 calls

**************************************************************************************

Host: vlogin2.ccqc.uga.edu

Timers On : Sun Jan 12 17:12:04 2025
Timers Off: Sun Jan 12 17:12:05 2025

Wall Time:        0.69 seconds

                                                       Time (seconds)
Module                                       User      System        Wall        Calls
Libint2ERI::Libint2ERI              :      0.000u      0.000s      0.000w      1 calls

--------------------------------------------------------------------------------------
Libint2ERI::Libint2ERI              :      0.000u      0.000s      0.000w      1 calls

**************************************************************************************

Host: vlogin2.ccqc.uga.edu

Timers On : Sun Jan 12 17:12:19 2025
Timers Off: Sun Jan 12 17:12:20 2025

Wall Time:        0.69 seconds

                                                       Time (seconds)
Module                                       User      System        Wall        Calls
Libint2ERI::Libint2ERI              :      0.000u      0.000s      0.000w      1 calls

--------------------------------------------------------------------------------------
Libint2ERI::Libint2ERI              :      0.000u      0.000s      0.000w      1 calls

**************************************************************************************

Host: vlogin2.ccqc.uga.edu

Timers On : Sun Jan 12 17:25:46 2025
Timers Off: Sun Jan 12 17:25:47 2025

Wall Time:        0.92 seconds

                                                       Time (seconds)
Module                                       User      System        Wall        Calls
Libint2ERI::Libint2ERI              :      0.000u      0.000s      0.000w      1 calls

--------------------------------------------------------------------------------------
Libint2ERI::Libint2ERI              :      0.000u      0.000s      0.000w      1 calls

**************************************************************************************

Host: vlogin2.ccqc.uga.edu

Timers On : Sun Jan 12 17:26:04 2025
Timers Off: Sun Jan 12 17:26:04 2025

Wall Time:        0.67 seconds

                                                       Time (seconds)
Module                                       User      System        Wall        Calls
Libint2ERI::Libint2ERI              :      0.000u      0.000s      0.000w      1 calls

--------------------------------------------------------------------------------------
Libint2ERI::Libint2ERI              :      0.000u      0.000s      0.000w      1 calls

**************************************************************************************

Host: vlogin2.ccqc.uga.edu

Timers On : Sun Jan 12 17:26:21 2025
Timers Off: Sun Jan 12 17:26:22 2025

Wall Time:        0.64 seconds

                                                       Time (seconds)
Module                                       User      System        Wall        Calls
Libint2ERI::Libint2ERI              :      0.000u      0.000s      0.000w      1 calls

--------------------------------------------------------------------------------------
Libint2ERI::Libint2ERI              :      0.000u      0.000s      0.000w      1 calls

**************************************************************************************

Host: vlogin2.ccqc.uga.edu

Timers On : Sun Jan 12 17:26:39 2025
Timers Off: Sun Jan 12 17:26:40 2025

Wall Time:        0.69 seconds

                                                       Time (seconds)
Module                                       User      System        Wall        Calls
Libint2ERI::Libint2ERI              :      0.000u      0.000s      0.001w      1 calls

--------------------------------------------------------------------------------------
Libint2ERI::Libint2ERI              :      0.000u      0.000s      0.001w      1 calls

**************************************************************************************

Host: vlogin2.ccqc.uga.edu

Timers On : Sun Jan 12 17:26:59 2025
Timers Off: Sun Jan 12 17:26:59 2025

Wall Time:        0.64 seconds

                                                       Time (seconds)
Module                                       User      System        Wall        Calls

--------------------------------------------------------------------------------------

**************************************************************************************

Host: vlogin2.ccqc.uga.edu

Timers On : Sun Jan 12 17:27:13 2025
Timers Off: Sun Jan 12 17:27:14 2025

Wall Time:        0.71 seconds

                                                       Time (seconds)
Module                                       User      System        Wall        Calls
Libint2ERI::Libint2ERI              :      0.000u      0.000s      0.000w      1 calls

--------------------------------------------------------------------------------------
Libint2ERI::Libint2ERI              :      0.000u      0.000s      0.000w      1 calls

**************************************************************************************

Host: vlogin2.ccqc.uga.edu

Timers On : Sun Jan 12 17:27:35 2025
Timers Off: Sun Jan 12 17:27:35 2025

Wall Time:        0.69 seconds

                                                       Time (seconds)
Module                                       User      System        Wall        Calls
Libint2ERI::Libint2ERI              :      0.000u      0.000s      0.000w      1 calls

--------------------------------------------------------------------------------------
Libint2ERI::Libint2ERI              :      0.000u      0.000s      0.000w      1 calls

**************************************************************************************

Host: vlogin2.ccqc.uga.edu

Timers On : Sun Jan 12 17:27:52 2025
Timers Off: Sun Jan 12 17:27:53 2025

Wall Time:        0.69 seconds

                                                       Time (seconds)
Module                                       User      System        Wall        Calls
Libint2ERI::Libint2ERI              :      0.000u      0.000s      0.000w      1 calls

--------------------------------------------------------------------------------------
Libint2ERI::Libint2ERI              :      0.000u      0.000s      0.000w      1 calls

**************************************************************************************

Host: vlogin2.ccqc.uga.edu

Timers On : Sun Jan 12 17:29:30 2025
Timers Off: Sun Jan 12 17:29:30 2025

Wall Time:        0.74 seconds

                                                       Time (seconds)
Module                                       User      System        Wall        Calls
Libint2ERI::Libint2ERI              :      0.000u      0.000s      0.000w      1 calls

--------------------------------------------------------------------------------------
Libint2ERI::Libint2ERI              :      0.000u      0.000s      0.000w      1 calls

**************************************************************************************

Host: vlogin2.ccqc.uga.edu

Timers On : Sun Jan 12 17:29:46 2025
Timers Off: Sun Jan 12 17:29:47 2025

Wall Time:        0.70 seconds

                                                       Time (seconds)
Module                                       User      System        Wall        Calls
Libint2ERI::Libint2ERI              :      0.000u      0.000s      0.001w      1 calls

--------------------------------------------------------------------------------------
Libint2ERI::Libint2ERI              :      0.000u      0.000s      0.001w      1 calls

**************************************************************************************

Host: vlogin2.ccqc.uga.edu

Timers On : Sun Jan 12 17:30:24 2025
Timers Off: Sun Jan 12 17:30:25 2025

Wall Time:        0.65 seconds

                                                       Time (seconds)
Module                                       User      System        Wall        Calls
Libint2ERI::Libint2ERI              :      0.000u      0.000s      0.000w      1 calls

--------------------------------------------------------------------------------------
Libint2ERI::Libint2ERI              :      0.000u      0.000s      0.000w      1 calls

**************************************************************************************

Host: vlogin2.ccqc.uga.edu

Timers On : Sun Jan 12 17:32:11 2025
Timers Off: Sun Jan 12 17:32:12 2025

Wall Time:        0.98 seconds

                                                       Time (seconds)
Module                                       User      System        Wall        Calls
Libint2ERI::Libint2ERI              :      0.000u      0.000s      0.000w      1 calls

--------------------------------------------------------------------------------------
Libint2ERI::Libint2ERI              :      0.000u      0.000s      0.000w      1 calls

**************************************************************************************

Host: vlogin2.ccqc.uga.edu

Timers On : Sun Jan 12 17:32:28 2025
Timers Off: Sun Jan 12 17:32:28 2025

Wall Time:        0.70 seconds

                                                       Time (seconds)
Module                                       User      System        Wall        Calls
Libint2ERI::Libint2ERI              :      0.000u      0.000s      0.000w      1 calls

--------------------------------------------------------------------------------------
Libint2ERI::Libint2ERI              :      0.000u      0.000s      0.000w      1 calls

**************************************************************************************

Host: vlogin2.ccqc.uga.edu

Timers On : Sun Jan 12 17:33:11 2025
Timers Off: Sun Jan 12 17:33:12 2025

Wall Time:        0.68 seconds

                                                       Time (seconds)
Module                                       User      System        Wall        Calls
Libint2ERI::Libint2ERI              :      0.000u      0.000s      0.000w      1 calls

--------------------------------------------------------------------------------------
Libint2ERI::Libint2ERI              :      0.000u      0.000s      0.000w      1 calls

**************************************************************************************

Host: vlogin2.ccqc.uga.edu

Timers On : Sun Jan 12 17:33:37 2025
Timers Off: Sun Jan 12 17:33:38 2025

Wall Time:        0.83 seconds

                                                       Time (seconds)
Module                                       User      System        Wall        Calls
Libint2ERI::Libint2ERI              :      0.000u      0.000s      0.000w      1 calls

--------------------------------------------------------------------------------------
Libint2ERI::Libint2ERI              :      0.000u      0.000s      0.000w      1 calls

**************************************************************************************

Host: vlogin2.ccqc.uga.edu

Timers On : Sun Jan 12 17:36:31 2025
Timers Off: Sun Jan 12 17:36:32 2025

Wall Time:        0.72 seconds

                                                       Time (seconds)
Module                                       User      System        Wall        Calls
Libint2ERI::Libint2ERI              :      0.000u      0.000s      0.000w      1 calls

--------------------------------------------------------------------------------------
Libint2ERI::Libint2ERI              :      0.000u      0.000s      0.000w      1 calls

**************************************************************************************

Host: vlogin2.ccqc.uga.edu

Timers On : Sun Jan 12 17:40:35 2025
Timers Off: Sun Jan 12 17:40:35 2025

Wall Time:        0.65 seconds

                                                       Time (seconds)
Module                                       User      System        Wall        Calls
Libint2ERI::Libint2ERI              :      0.000u      0.000s      0.000w      1 calls

--------------------------------------------------------------------------------------
Libint2ERI::Libint2ERI              :      0.000u      0.000s      0.000w      1 calls

**************************************************************************************

Host: vlogin2.ccqc.uga.edu

Timers On : Sun Jan 12 17:41:11 2025
Timers Off: Sun Jan 12 17:41:11 2025

Wall Time:        0.68 seconds

                                                       Time (seconds)
Module                                       User      System        Wall        Calls
[...]

Host: vlogin2.ccqc.uga.edu

Timers On : Mon Jan 13 21:45:57 2025
Timers Off: Mon Jan 13 21:45:57 2025

Wall Time:        0.74 seconds

                                                       Time (seconds)
Module                                       User      System        Wall        Calls
Libint2ERI::Libint2ERI              :      0.000u      0.000s      0.001w      1 calls

--------------------------------------------------------------------------------------
Libint2ERI::Libint2ERI              :      0.000u      0.000s      0.001w      1 calls

**************************************************************************************

Host: vlogin2.ccqc.uga.edu

Timers On : Mon Jan 13 21:46:44 2025
Timers Off: Mon Jan 13 21:46:44 2025

Wall Time:        0.66 seconds

                                                       Time (seconds)
Module                                       User      System        Wall        Calls
Libint2ERI::Libint2ERI              :      0.000u      0.000s      0.000w      1 calls

--------------------------------------------------------------------------------------
Libint2ERI::Libint2ERI              :      0.000u      0.000s      0.000w      1 calls

**************************************************************************************

Host: vlogin2.ccqc.uga.edu

Timers On : Mon Jan 13 21:47:20 2025
Timers Off: Mon Jan 13 21:47:20 2025

Wall Time:        0.71 seconds

                                                       Time (seconds)
Module                                       User      System        Wall        Calls
Libint2ERI::Libint2ERI              :      0.000u      0.000s      0.000w      1 calls

--------------------------------------------------------------------------------------
Libint2ERI::Libint2ERI              :      0.000u      0.000s      0.000w      1 calls

**************************************************************************************

Host: vlogin2.ccqc.uga.edu

Timers On : Mon Jan 13 21:47:28 2025
Timers Off: Mon Jan 13 21:47:29 2025

Wall Time:        0.63 seconds

                                                       Time (seconds)
Module                                       User      System        Wall        Calls
Libint2ERI::Libint2ERI              :      0.000u      0.000s      0.000w      1 calls

--------------------------------------------------------------------------------------
Libint2ERI::Libint2ERI              :      0.000u      0.000s      0.000w      1 calls

**************************************************************************************

Host: vlogin2.ccqc.uga.edu

Timers On : Mon Jan 13 21:47:59 2025
Timers Off: Mon Jan 13 21:47:59 2025

Wall Time:        0.63 seconds

                                                       Time (seconds)
Module                                       User      System        Wall        Calls
Libint2ERI::Libint2ERI              :      0.000u      0.000s      0.000w      1 calls

--------------------------------------------------------------------------------------
Libint2ERI::Libint2ERI              :      0.000u      0.000s      0.000w      1 calls

**************************************************************************************

Host: vlogin2.ccqc.uga.edu

Timers On : Mon Jan 13 21:48:20 2025
Timers Off: Mon Jan 13 21:48:21 2025

Wall Time:        0.73 seconds

                                                       Time (seconds)
Module                                       User      System        Wall        Calls
Libint2ERI::Libint2ERI              :      0.000u      0.000s      0.000w      1 calls

--------------------------------------------------------------------------------------
Libint2ERI::Libint2ERI              :      0.000u      0.000s      0.000w      1 calls

**************************************************************************************

Host: vlogin2.ccqc.uga.edu

Timers On : Mon Jan 13 21:51:42 2025
Timers Off: Mon Jan 13 21:51:43 2025

Wall Time:        0.95 seconds

                                                       Time (seconds)
Module                                       User      System        Wall        Calls
Libint2ERI::Libint2ERI              :      0.000u      0.000s      0.001w      1 calls

--------------------------------------------------------------------------------------
Libint2ERI::Libint2ERI              :      0.000u      0.000s      0.001w      1 calls

**************************************************************************************

Host: vlogin2.ccqc.uga.edu

Timers On : Mon Jan 13 21:52:09 2025
Timers Off: Mon Jan 13 21:52:09 2025

Wall Time:        0.61 seconds

                                                       Time (seconds)
Module                                       User      System        Wall        Calls
Libint2ERI::Libint2ERI              :      0.000u      0.000s      0.000w      1 calls

--------------------------------------------------------------------------------------
Libint2ERI::Libint2ERI              :      0.000u      0.000s      0.000w      1 calls

**************************************************************************************

Host: vlogin2.ccqc.uga.edu

Timers On : Mon Jan 13 21:52:20 2025
Timers Off: Mon Jan 13 21:52:20 2025

Wall Time:        0.62 seconds

                                                       Time (seconds)
Module                                       User      System        Wall        Calls
Libint2ERI::Libint2ERI              :      0.000u      0.000s      0.000w      1 calls

--------------------------------------------------------------------------------------
Libint2ERI::Libint2ERI              :      0.000u      0.000s      0.000w      1 calls

**************************************************************************************

Host: vlogin2.ccqc.uga.edu

Timers On : Mon Jan 13 21:52:37 2025
Timers Off: Mon Jan 13 21:52:38 2025

Wall Time:        0.68 seconds

                                                       Time (seconds)
Module                                       User      System        Wall        Calls
Libint2ERI::Libint2ERI              :      0.000u      0.000s      0.000w      1 calls

--------------------------------------------------------------------------------------
Libint2ERI::Libint2ERI              :      0.000u      0.000s      0.000w      1 calls

**************************************************************************************

Host: vlogin2.ccqc.uga.edu

Timers On : Mon Jan 13 21:53:09 2025
Timers Off: Mon Jan 13 21:53:10 2025

Wall Time:        0.71 seconds

                                                       Time (seconds)
Module                                       User      System        Wall        Calls
Libint2ERI::Libint2ERI              :      0.000u      0.000s      0.000w      1 calls

--------------------------------------------------------------------------------------
Libint2ERI::Libint2ERI              :      0.000u      0.000s      0.000w      1 calls

**************************************************************************************

Host: vlogin2.ccqc.uga.edu

Timers On : Mon Jan 13 22:00:03 2025
Timers Off: Mon Jan 13 22:00:04 2025

Wall Time:        0.95 seconds

                                                       Time (seconds)
Module                                       User      System        Wall        Calls
Libint2ERI::Libint2ERI              :      0.000u      0.000s      0.001w      1 calls

--------------------------------------------------------------------------------------
Libint2ERI::Libint2ERI              :      0.000u      0.000s      0.001w      1 calls

**************************************************************************************

Host: vlogin2.ccqc.uga.edu

Timers On : Mon Jan 13 22:00:18 2025
Timers Off: Mon Jan 13 22:00:19 2025

Wall Time:        0.68 seconds

                                                       Time (seconds)
Module                                       User      System        Wall        Calls
Libint2ERI::Libint2ERI              :      0.017u      0.000s      0.001w      1 calls

--------------------------------------------------------------------------------------
Libint2ERI::Libint2ERI              :      0.017u      0.000s      0.001w      1 calls

**************************************************************************************

Host: vlogin2.ccqc.uga.edu

Timers On : Mon Jan 13 22:00:35 2025
Timers Off: Mon Jan 13 22:00:35 2025

Wall Time:        0.61 seconds

                                                       Time (seconds)
Module                                       User      System        Wall        Calls
Libint2ERI::Libint2ERI              :      0.000u      0.000s      0.000w      1 calls

--------------------------------------------------------------------------------------
Libint2ERI::Libint2ERI              :      0.000u      0.000s      0.000w      1 calls

**************************************************************************************

Host: vlogin2.ccqc.uga.edu

Timers On : Mon Jan 13 22:00:47 2025
Timers Off: Mon Jan 13 22:00:47 2025

Wall Time:        0.63 seconds

                                                       Time (seconds)
Module                                       User      System        Wall        Calls
Libint2ERI::Libint2ERI              :      0.000u      0.000s      0.000w      1 calls

--------------------------------------------------------------------------------------
Libint2ERI::Libint2ERI              :      0.000u      0.000s      0.000w      1 calls

**************************************************************************************

Host: vlogin2.ccqc.uga.edu

Timers On : Mon Jan 13 22:02:02 2025
Timers Off: Mon Jan 13 22:02:02 2025

Wall Time:        0.74 seconds

                                                       Time (seconds)
Module                                       User      System        Wall        Calls
Libint2ERI::Libint2ERI              :      0.000u      0.000s      0.001w      1 calls

--------------------------------------------------------------------------------------
Libint2ERI::Libint2ERI              :      0.000u      0.000s      0.001w      1 calls

**************************************************************************************

Host: vlogin2.ccqc.uga.edu

Timers On : Mon Jan 13 22:08:01 2025
Timers Off: Mon Jan 13 22:08:02 2025

Wall Time:        0.91 seconds

                                                       Time (seconds)
Module                                       User      System        Wall        Calls
Libint2ERI::Libint2ERI              :      0.000u      0.000s      0.000w      1 calls

--------------------------------------------------------------------------------------
Libint2ERI::Libint2ERI              :      0.000u      0.000s      0.000w      1 calls

**************************************************************************************

Host: vlogin2.ccqc.uga.edu

Timers On : Mon Jan 13 22:08:31 2025
Timers Off: Mon Jan 13 22:08:32 2025

Wall Time:        0.63 seconds

                                                       Time (seconds)
Module                                       User      System        Wall        Calls
Libint2ERI::Libint2ERI              :      0.000u      0.000s      0.000w      1 calls

--------------------------------------------------------------------------------------
Libint2ERI::Libint2ERI              :      0.000u      0.000s      0.000w      1 calls

**************************************************************************************

Host: vlogin2.ccqc.uga.edu

Timers On : Mon Jan 13 22:12:57 2025
Timers Off: Mon Jan 13 22:12:58 2025

Wall Time:        0.93 seconds

                                                       Time (seconds)
Module                                       User      System        Wall        Calls
Libint2ERI::Libint2ERI              :      0.000u      0.000s      0.000w      1 calls

--------------------------------------------------------------------------------------
Libint2ERI::Libint2ERI              :      0.000u      0.000s      0.000w      1 calls

**************************************************************************************

Host: vlogin2.ccqc.uga.edu

Timers On : Mon Jan 13 22:13:32 2025
Timers Off: Mon Jan 13 22:13:33 2025

Wall Time:        0.63 seconds

                                                       Time (seconds)
Module                                       User      System        Wall        Calls
Libint2ERI::Libint2ERI              :      0.000u      0.000s      0.000w      1 calls

--------------------------------------------------------------------------------------
Libint2ERI::Libint2ERI              :      0.000u      0.000s      0.000w      1 calls

**************************************************************************************

Host: vlogin2.ccqc.uga.edu

Timers On : Mon Jan 13 22:14:04 2025
Timers Off: Mon Jan 13 22:14:05 2025

Wall Time:        0.85 seconds

                                                       Time (seconds)
Module                                       User      System        Wall        Calls
Libint2ERI::Libint2ERI              :      0.017u      0.000s      0.000w      1 calls

--------------------------------------------------------------------------------------
Libint2ERI::Libint2ERI              :      0.017u      0.000s      0.000w      1 calls

**************************************************************************************

Host: vlogin2.ccqc.uga.edu

Timers On : Mon Jan 13 22:14:29 2025
Timers Off: Mon Jan 13 22:14:30 2025

Wall Time:        0.64 seconds

                                                       Time (seconds)
Module                                       User      System        Wall        Calls
Libint2ERI::Libint2ERI              :      0.000u      0.000s      0.001w      1 calls

--------------------------------------------------------------------------------------
Libint2ERI::Libint2ERI              :      0.000u      0.000s      0.001w      1 calls

**************************************************************************************

Host: vlogin2.ccqc.uga.edu

Timers On : Mon Jan 13 22:14:54 2025
Timers Off: Mon Jan 13 22:14:55 2025

Wall Time:        0.66 seconds

                                                       Time (seconds)
Module                                       User      System        Wall        Calls
Libint2ERI::Libint2ERI              :      0.000u      0.000s      0.000w      1 calls

--------------------------------------------------------------------------------------
Libint2ERI::Libint2ERI              :      0.000u      0.000s      0.000w      1 calls

**************************************************************************************

Host: vlogin2.ccqc.uga.edu

Timers On : Mon Jan 13 22:15:45 2025
Timers Off: Mon Jan 13 22:15:46 2025

Wall Time:        0.71 seconds

                                                       Time (seconds)
Module                                       User      System        Wall        Calls
Libint2ERI::Libint2ERI              :      0.000u      0.000s      0.000w      1 calls

--------------------------------------------------------------------------------------
Libint2ERI::Libint2ERI              :      0.000u      0.000s      0.000w      1 calls

**************************************************************************************

Host: vlogin2.ccqc.uga.edu

Timers On : Mon Jan 13 22:16:34 2025
Timers Off: Mon Jan 13 22:16:35 2025

Wall Time:        0.66 seconds

                                                       Time (seconds)
Module                                       User      System        Wall        Calls
Libint2ERI::Libint2ERI              :      0.000u      0.000s      0.000w      1 calls

--------------------------------------------------------------------------------------
Libint2ERI::Libint2ERI              :      0.000u      0.000s      0.000w      1 calls

**************************************************************************************

Host: vlogin2.ccqc.uga.edu

Timers On : Mon Jan 13 22:16:57 2025
Timers Off: Mon Jan 13 22:16:57 2025

Wall Time:        0.71 seconds

                                                       Time (seconds)
Module                                       User      System        Wall        Calls
Libint2ERI::Libint2ERI              :      0.000u      0.000s      0.000w      1 calls

--------------------------------------------------------------------------------------
Libint2ERI::Libint2ERI              :      0.000u      0.000s      0.000w      1 calls

**************************************************************************************

Host: vlogin2.ccqc.uga.edu

Timers On : Mon Jan 13 22:17:27 2025
Timers Off: Mon Jan 13 22:17:28 2025

Wall Time:        0.63 seconds

                                                       Time (seconds)
Module                                       User      System        Wall        Calls
Libint2ERI::Libint2ERI              :      0.000u      0.000s      0.000w      1 calls

--------------------------------------------------------------------------------------
Libint2ERI::Libint2ERI              :      0.000u      0.000s      0.000w      1 calls

**************************************************************************************

Host: vlogin2.ccqc.uga.edu

Timers On : Mon Jan 13 22:18:18 2025
Timers Off: Mon Jan 13 22:18:19 2025

Wall Time:        0.74 seconds

                                                       Time (seconds)
Module                                       User      System        Wall        Calls
Libint2ERI::Libint2ERI              :      0.000u      0.000s      0.000w      1 calls

--------------------------------------------------------------------------------------
Libint2ERI::Libint2ERI              :      0.000u      0.000s      0.000w      1 calls

**************************************************************************************

Host: vlogin2.ccqc.uga.edu

Timers On : Mon Jan 13 22:18:34 2025
Timers Off: Mon Jan 13 22:18:35 2025

Wall Time:        0.68 seconds

                                                       Time (seconds)
Module                                       User      System        Wall        Calls
Libint2ERI::Libint2ERI              :      0.000u      0.000s      0.001w      1 calls

--------------------------------------------------------------------------------------
Libint2ERI::Libint2ERI              :      0.000u      0.000s      0.001w      1 calls

**************************************************************************************

Host: vlogin2.ccqc.uga.edu

Timers On : Mon Jan 13 22:18:49 2025
Timers Off: Mon Jan 13 22:18:50 2025

Wall Time:        0.65 seconds

                                                       Time (seconds)
Module                                       User      System        Wall        Calls
Libint2ERI::Libint2ERI              :      0.000u      0.000s      0.000w      1 calls

--------------------------------------------------------------------------------------
Libint2ERI::Libint2ERI              :      0.000u      0.000s      0.000w      1 calls

**************************************************************************************

Host: vlogin2.ccqc.uga.edu

Timers On : Mon Jan 13 22:19:43 2025
Timers Off: Mon Jan 13 22:19:43 2025

Wall Time:        0.71 seconds

                                                       Time (seconds)
Module                                       User      System        Wall        Calls
Libint2ERI::Libint2ERI              :      0.000u      0.000s      0.000w      1 calls

--------------------------------------------------------------------------------------
Libint2ERI::Libint2ERI              :      0.000u      0.000s      0.000w      1 calls

**************************************************************************************
